band_gap,density,volume,nsites,crystal_Cubic,crystal_Hexagonal,crystal_Monoclinic,crystal_Orthorhombic,crystal_Tetragonal,crystal_Triclinic,crystal_Trigonal,formation_energy_pbe,formation_energy_r2scan,material_id,formula
0.0,10.627773968067226,69.25805721514843,6,False,False,False,True,False,False,False,0.05228268168418765,-0.3310471792298268,mp-1070916,AlBW
0.0,5.843468147794531,67.05333328870022,2,True,False,False,False,False,False,False,0.2076241086662052,0.06753730612647313,mp-1018132,AlBi
1.1162,4.584375992026389,597.3526373486606,20,False,False,False,False,False,True,False,-0.9609385629428918,-1.3279710803475788,mp-1190020,AlBi2Se2BrCl4
0.0,9.301753133620576,116.73759111694491,4,True,False,False,False,False,False,False,0.4958801977762787,0.19602534810720967,mp-1183170,AlBi3
2.5722,4.235532938804319,560.9335665215992,16,False,False,False,False,False,True,False,-1.0899257648824405,-1.3068917130683277,mp-31268,AlBiBr6
0.0,7.256442216135046,241.62880337672362,16,False,False,False,True,False,False,False,-0.1352394769569763,-0.5150948560842369,mp-1245799,AlBiN2
0.9480000000000001,6.8874939972276366,273.8452642962739,20,False,False,False,True,False,False,False,-1.9524167797770942,-2.264167670448517,mp-1344602,AlBiO3
0.641099999999999,6.373232458531103,147.97103559945393,10,False,True,False,False,False,False,False,-1.442393136872862,-1.700538809778885,mp-1392353,AlBiO3
0.0,6.037051899615939,78.10549111437122,5,True,False,False,False,False,False,False,-0.414923484495363,-0.8674532902125952,mp-1413511,AlBiO3
1.585999999999999,8.680681447425108,54.31911150734789,5,True,False,False,False,False,False,False,-2.2943961141399845,-2.3637870599038346,mp-23080,AlBiO3
2.977899999999999,8.296037245622959,113.6752137295987,10,False,False,False,False,False,False,True,-2.108120443958362,-2.519040035308012,mp-551918,AlBiO3
3.0001,6.6392496188118635,284.0844556688522,20,False,False,True,False,False,False,False,-2.0865864818047437,-2.521602877925972,mp-775763,AlBiO3
4.0992,3.141176611644674,563.9352311657797,16,False,False,True,False,False,False,False,-1.2644822527720976,-1.574450587892232,mp-23288,AlBr3
3.0144,3.299291738479567,247.39278295659696,12,False,False,False,True,False,False,False,-2.2342145358303487,-2.5617531283008264,mp-1214833,AlBrO
0.0,3.659639318723078,260.69073326572175,16,False,False,False,False,True,False,False,0.5546312869797045,0.3858038171957425,mp-1229188,AlC2Br5(NO3)2
0.0,3.169636157458003,33.012182921282225,4,True,False,False,False,False,False,False,3.083712370537286,2.6339387460681136,mp-1065540,AlC3
0.9859999999999991,1.090942298507529,558.2486922895079,16,False,False,True,False,False,False,False,0.6810303664085497,0.42188508248616685,mp-1105616,AlC3NCl3
0.6016,1.121654671879408,473.5534161269295,16,False,False,True,False,False,False,False,0.34774832004714207,0.13171203922989544,mp-1229258,AlC4NCl2
0.495299999999999,1.08170004979179,419.0715270361362,16,False,False,True,False,False,False,False,1.1810210188755303,0.7364329809255222,mp-1182913,AlC5NCl
0.606,1.469199516341592,308.54195541125836,16,False,False,True,False,False,False,False,1.278913413293584,1.0912336625490235,mp-1189041,AlC5NCl
0.0,1.073068345783191,153.2701239132273,7,True,False,False,False,False,False,False,2.031995638134751,1.981630806988687,mp-1214819,AlC6
0.3063,2.115162874474237,208.82075268017354,16,False,False,False,True,False,False,False,-1.4315224454035844,-1.526597560797163,mp-1182891,AlCNO5
0.0,1.76489151962269,250.26461886070868,16,False,False,False,True,False,False,False,-0.35543417667315413,-0.766645523528756,mp-1189152,AlCNO5
0.0,7.035827706738082,85.95896533819257,4,False,False,False,False,True,False,False,0.22325686962555855,0.0921414891418763,mp-1183215,AlCd3
2.761,2.647852691095329,352.70173723853594,12,False,False,False,False,False,True,False,-0.9004788818690113,-1.4387922548107877,mp-1102961,AlCdCl4
0.0,5.311502273762277,201.91900634386963,9,True,False,False,False,False,False,False,-0.5095831500020014,-0.4702817811675912,mp-1182878,AlCdCu3Se4
0.745499999999999,3.803964728868889,166.95929548160996,7,False,False,False,False,False,False,True,-0.31358164922077436,-0.8545133448847247,mp-1228978,AlCdInS4
0.13539999999999902,0.6734150877811781,851.2193625815024,4,False,False,False,True,False,False,False,2.2606453300803917,1.964497520006697,mp-1096462,AlCdRh2
0.7791,4.888002666771517,132.0659626422825,4,False,False,False,False,False,False,True,-0.1454331284472239,-0.46626738768795645,mp-1228925,AlCdSbTe
5.263,2.40641043516053,184.0227837044055,8,False,False,True,False,False,False,False,-1.4745441323963415,-1.642789546028465,mp-25469,AlCl3
0.0,2.691596107270746,82.26240664737037,4,False,False,False,False,False,False,True,-0.42365803847218847,-0.7378312969736314,mp-25470,AlCl3
5.593999999999999,2.8907438422405822,90.11010750205814,6,False,False,False,True,False,False,False,-2.4908330970303934,-2.7631192317492936,mp-27863,AlClO
0.0,6.365685461675437,22.411533274498698,2,True,False,False,False,False,False,False,-0.09096084769752086,-0.5030021627368673,mp-284,AlCo
0.028299999999999003,6.819666805482915,141.61290177808226,12,False,False,False,False,False,True,False,-1.858458101034027,-2.225290944563666,mp-1047724,AlCo(WO4)2
0.0,7.436709386935059,45.44864001298096,4,True,False,False,False,False,False,False,0.0977572147192816,-0.24052149358787958,mp-1214804,AlCo2Ni
0.0,7.462029395266885,45.29442460014316,4,False,False,False,False,True,False,False,0.0033360036679225963,-0.2641812683204576,mp-1214822,AlCo2Ni
0.0,5.201701173792208,55.205538441576955,4,False,False,False,True,False,False,False,0.8302142633168379,0.5604004865877183,mp-1015811,AlCo2Si
0.0,7.406343710362048,45.688740626500255,4,True,False,False,False,False,False,False,0.19074433533381085,-0.1869301521880624,mp-1018101,AlCo3
0.0,7.428280633580205,91.1076286600527,8,False,True,False,False,False,False,False,-0.13488460764849183,-0.15563449426987344,mp-1080667,AlCo3
0.0,6.9444222571555,51.59979334082594,5,True,False,False,False,False,False,False,-0.103455934815854,-0.16011203718009562,mp-10037,AlCo3C
0.0,7.594940255047482,57.43921278387617,5,False,False,False,False,False,False,True,0.40402746910340726,0.01339394200251998,mp-1228933,AlCo4
0.0,5.936630461391544,180.5099353655445,20,True,False,False,False,False,False,False,-0.8073035982808087,-1.124420883290155,mp-1045723,AlCo4(CuO4)3
3.2098,3.550746334370992,84.60269949856603,7,False,False,False,True,False,False,False,-2.892527226881473,-3.1945659266555935,mp-1251112,AlCoF5
0.0,4.571657627377595,82.7630291011723,8,False,False,False,False,True,False,False,-0.24803919097768903,-0.5762098099212589,mp-1245486,AlCoN2
0.0,4.559343716420902,165.97311226724761,16,False,False,False,True,False,False,False,-0.17048030325824742,-0.4851289919035981,mp-1246670,AlCoN2
0.214099999999999,2.844462530905168,249.75473188613498,18,False,False,False,True,False,False,False,-1.8556788670464042,-2.05133444488284,mp-1229178,AlCoNF6
0.0,8.287713674717164,87.77340796267792,8,False,False,False,False,True,False,False,-0.014538533810348905,-0.19896341058132833,mp-1228972,AlCoNi6
2.5603,5.052577293436306,88.02147690236615,10,False,False,False,False,False,False,True,-1.980538590735347,-2.322452665372976,mp-1178576,AlCoO3
0.0,5.190860547629025,171.3532126131805,20,False,False,False,True,False,False,False,-2.0060107051422538,-2.22002902469334,mp-1378752,AlCoO3
0.0,4.588688787346288,96.91991245037583,10,False,True,False,False,False,False,False,-1.723575877642828,-2.1169393635605323,mp-1386773,AlCoO3
0.025500000000000002,4.769837473558319,93.23909210681114,10,False,False,False,False,False,True,False,2.7779411743643236,2.7906712876141917,mp-1404938,AlCoO3
0.0,4.409719414937844,50.426713548382544,5,True,False,False,False,False,False,False,-0.5889705134011534,-1.081757526130074,mp-1435808,AlCoO3
0.8939,4.761424852352278,93.40382959355364,10,False,False,False,False,False,True,False,-1.8543124596380427,-2.219517687363367,mp-754022,AlCoO3
0.827199999999999,4.453275664965529,199.73401558336542,20,False,False,True,False,False,False,False,-1.9012271703529176,-2.209408311304143,mp-756947,AlCoO3
0.3481,4.769838379175771,93.23907440412559,10,False,False,False,False,False,True,False,-1.789033948408172,-2.274085276040068,mp-776216,AlCoO3
0.0,11.395907552750312,157.227766711733,12,False,False,False,True,False,False,False,0.37007636166938845,-0.17420349075656552,mp-1229047,AlCoW
1.8844999999999992,5.713668791354753,167.00889097241995,12,False,False,False,False,False,True,False,-1.8714367627472797,-2.2954548063746794,mp-1041713,AlCr(WO4)2
0.0,5.73337323553684,37.93351674646245,3,False,False,False,True,False,False,False,0.09655439863359022,0.07306051299055452,mp-1228923,AlCr2
0.0,5.870884090603154,37.04501848232069,3,False,False,False,False,True,False,False,0.14327328498964376,0.12126192167000205,mp-1699,AlCr2
0.0,5.45194410649955,87.09966264258458,8,False,True,False,False,False,False,False,0.034048067095648143,-0.22228712401634587,mp-9956,AlCr2C
0.0,4.888102027109143,117.53561021568296,12,False,False,False,True,False,False,False,-0.5256133710100389,-0.7977651726451477,mp-1245994,AlCr2N3
0.0,4.324790217079697,149.72172445914055,14,False,False,True,False,False,False,False,-1.7933635255010605,-2.176196430693323,mp-1253889,AlCr2O4
0.0,4.33095679791393,149.5085449795016,14,False,False,True,False,False,False,False,-1.936723249115877,-2.104704072497757,mp-1390510,AlCr2O4
2.0559,4.27987714028828,151.29290584766142,14,False,False,False,False,False,False,True,-2.1775421731855804,-2.4923179733061644,mp-1393022,AlCr2O4
0.0,4.368638012627416,148.21897519400105,14,True,False,False,False,False,False,False,-2.3038642205672843,-2.5125514666275857,mp-756851,AlCr2O4
0.28850000000000003,0.6432877110648321,812.6387348242303,4,False,False,False,True,False,False,False,4.0275368125512045,3.826134374773777,mp-1096575,AlCr2W
0.0,5.468390825826213,68.69240483448665,8,False,False,False,True,False,False,False,-0.2738764507772314,-0.4186143297919467,mp-637575,AlCr3B4
0.0,3.639425287695347,141.88218032332958,12,False,False,False,False,False,False,True,-1.8119373594166335,-1.9553549474828562,mp-1229068,AlCr3O8
0.0,7.61246737496055,108.82174573692616,8,False,False,False,False,False,False,True,-0.04989357317798107,-0.13819612835581524,mp-1228924,AlCr3SiMo3
0.0,5.211084836474456,196.80038687373903,20,True,False,False,False,False,False,False,-1.560274226446601,-1.694733433440708,mp-1045721,AlCr4(CuO4)3
0.0,3.833068363579046,259.6486332804136,14,True,False,False,False,False,False,False,-0.553163082770727,-0.9794658025092885,mp-1228999,AlCr4AgS8
0.0,3.708079347360025,248.55245287892893,14,True,False,False,False,False,False,False,-0.8905792068962193,-1.0371407783651365,mp-1228960,AlCr4CuS8
0.0,5.357923848726349,288.28704869496516,14,True,False,False,False,False,False,False,-0.14695005375653347,-0.8373646808881937,mp-1229004,AlCr4CuSe8
0.0,6.131138957374102,89.02691043792449,8,False,True,False,False,False,False,False,0.22359485294463338,-0.17683488228733876,mp-1228967,AlCr4GaC2
0.0,6.592828415725241,92.44746906935315,8,True,False,False,False,False,False,False,0.3190229691792331,-0.030069072284469527,mp-1228922,AlCr6Si
0.0,7.024895043304369,46.529833898198135,4,True,False,False,False,False,False,False,-0.049382925777180064,-0.1850272201446781,mp-10883,AlCrCo2
0.0,6.546075704436335,52.27356064695988,4,True,False,False,False,False,False,False,0.3897045387446817,0.02774811900451235,mp-16494,AlCrCu2
2.4445,3.473110743686645,83.17713692007524,7,False,False,False,True,False,False,False,-3.1969746960785224,-3.417772335232218,mp-1262600,AlCrF5
0.0,6.939620028014657,45.623688523800745,4,False,False,False,False,True,False,False,0.1612722921968052,-0.1556490975824008,mp-1228906,AlCrFe2
0.0,6.501543606442883,48.69782959202422,4,False,False,False,True,False,False,False,0.6753403082403202,-0.03581080374981198,mp-1228937,AlCrFe2
0.0,7.117473278074657,44.48363207867446,4,True,False,False,False,False,False,False,0.1213750800413035,-0.12903322964197567,mp-16495,AlCrFe2
1.4767000000000001,4.464459791699671,147.90088334532493,14,False,False,False,True,False,False,False,-2.0704468217714345,-2.5228753160035327,mp-1229097,AlCrFeO4
0.0,5.97556550535159,84.26550151796108,6,False,False,False,True,False,False,False,0.16948724400889492,0.03320023087169047,mp-1228945,AlCrGe
0.0,4.026321743322255,88.25067180290115,8,False,False,False,False,True,False,False,-0.6870997679495423,-1.0082011866903902,mp-1245895,AlCrN2
0.0,4.015774669607563,176.96490862996603,16,False,False,False,True,False,False,False,-0.4025652434046716,-0.9795255757205447,mp-1246170,AlCrN2
0.0,5.977395344157927,76.49088767673003,6,False,False,False,True,False,False,False,0.1577016313318329,-0.041309932324234834,mp-1228985,AlCrNi
0.0,6.728186426589112,48.46340468475696,4,True,False,False,False,False,False,False,0.3129483074495402,-0.23952429011822593,mp-10885,AlCrNi2
1.802899999999999,4.415202888009722,191.0202958801217,20,False,False,False,True,False,False,False,-2.314121137181679,-2.726753956626429,mp-1345463,AlCrO3
0.0,3.863934818304003,54.568296419178175,5,False,False,False,False,True,False,False,-1.3381815273841402,-1.5800003437136112,mp-1383064,AlCrO3
0.0,4.101895980166584,102.8053083398928,10,False,True,False,False,False,False,False,-2.1267972081416717,-2.495216143132293,mp-1385937,AlCrO3
0.0,4.099564997157099,57.91247837670478,6,False,False,False,True,False,False,False,-1.9396552892226577,-2.3639043957902994,mp-753658,AlCrO4
0.14979999999999902,1.097358277789736,695.2279515295486,4,False,False,False,True,False,False,False,4.100855341832577,3.6800956244830854,mp-1097410,AlCrOs2
0.0,8.909116155615983,52.396535531909294,4,True,False,False,False,False,False,False,-0.3042199004835685,-0.32802290846683513,mp-862781,AlCrRu2
0.0,0.632410127028844,722.0173931779715,4,False,False,False,True,False,False,False,3.4568649136262737,3.301041451275902,mp-1097386,AlCrTc2
0.0,5.581466500966712,26.932798830272144,2,True,False,False,False,False,False,False,0.09444935266727526,-0.1643939570825652,mp-1022721,AlCu
0.0,5.511280106531164,136.37894603678083,10,False,False,True,False,False,False,False,0.04635089563499303,-0.24009615412871893,mp-2500,AlCu
0.8799,4.390067296366625,236.87285777660955,10,False,False,False,False,False,False,True,-0.16577817870221837,-0.5422572602013428,mp-1228984,AlCu(PSe3)2
1.173999999999999,7.045454251254369,138.16178683154487,12,False,False,False,False,False,True,False,-1.804495601526678,-2.1570018437743537,mp-1047109,AlCu(WO4)2
0.0,7.509000821909955,48.12434491235697,4,True,False,False,False,False,False,False,-0.09375366630651422,-0.19255106812507655,mp-1008555,AlCu3
0.0,7.516028024981326,96.1587009254571,8,False,True,False,False,False,False,False,0.15759097515089446,-0.2640102088382754,mp-1183216,AlCu3
0.0,7.5010224142666875,48.17553201993657,4,True,False,False,False,False,False,False,0.21067053429257446,-0.15462365813491094,mp-12777,AlCu3
0.0,7.517442305877194,96.14061027598393,8,False,False,False,True,False,False,False,0.18200003718965596,-0.24881332667325579,mp-12802,AlCu3
0.0,6.10257345870771,228.8632394894158,20,True,False,False,False,False,False,False,-0.11466478450013981,-0.5316792984804631,mp-1045607,AlCu3(AgO3)4
0.0,7.485799930806007,276.29081500162044,20,True,False,False,False,False,False,False,-0.7663966128176654,-1.2013885388189947,mp-1045637,AlCu3(BiO3)4
0.0,5.845938846913388,225.35743139028799,20,True,False,False,False,False,False,False,-1.1873225421157336,-1.5625495634579345,mp-1045851,AlCu3(MoO3)4
0.0,5.78539212687579,184.95341396864694,20,False,False,True,False,False,False,False,-0.7138072467187971,-1.0221144071825352,mp-1045829,AlCu3(NiO3)4
0.0,6.107471456121024,243.78767024957946,20,True,False,False,False,False,False,False,-1.3304818125273985,-1.3899788387176621,mp-1045633,AlCu3(SbO3)4
0.0,6.333711323028321,231.88105454872877,20,True,False,False,False,False,False,False,-1.2039208741301102,-1.525807666645557,mp-1045632,AlCu3(SnO3)4
0.0,8.213543371648642,231.4800339381461,20,False,False,False,False,False,True,False,-1.2195198284255333,-1.6253072411960523,mp-1045892,AlCu3(WO3)4
0.0,5.947525255485975,204.94539885151042,9,True,False,False,False,False,False,False,0.04715192053300598,-0.2552759434636544,mp-1182880,AlCu3HgSe4
1.241299999999999,5.5875581243675,220.1129852290265,9,True,False,False,False,False,False,False,-0.27418305901193346,-0.3725300682058358,mp-1182890,AlCu3PbSe4
0.0,7.673141552331159,243.38733116950596,20,True,False,False,False,False,False,False,0.011375386438760626,-0.1626767819357165,mp-1182885,AlCu4
0.0,5.813837509668662,189.59245948622333,20,True,False,False,False,False,False,False,-0.4901373185000646,-0.9803696182914772,mp-1045627,AlCu7O12
0.0,13.31686605655958,60.409549537333305,4,True,False,False,False,False,False,False,0.0363432069215017,-0.20743172918375397,mp-867306,AlCuAu2
2.1451000000000002,3.90662851528565,348.6686108464379,12,False,False,False,False,True,False,False,-0.8113230553941054,-1.241913366398281,mp-1102536,AlCuBr4
2.5112,2.618109351579225,294.7232745098301,12,False,False,False,False,True,False,False,-1.0149386002470968,-1.3537868719845447,mp-28020,AlCuCl4
0.0,3.712872243639575,82.97147001469428,7,False,False,False,True,False,False,False,-2.6295859405042106,-2.8999299251576303,mp-1251392,AlCuF5
0.8904999999999991,4.73835074893937,167.8665791508262,7,False,False,False,False,True,False,False,-0.30234579972859943,-0.7329317843364217,mp-1228980,AlCuGeSe4
0.0091,0.6319354737681261,546.3372386628849,4,False,False,False,True,False,False,False,2.3999577120173954,2.1492266539539098,mp-1096066,AlCuNi2
0.0,8.2591994271699,89.00385840541591,8,False,False,False,False,True,False,False,0.12934926404114747,-0.17857010323786146,mp-1228938,AlCuNi6
1.8148,5.146334199359751,79.06978600731826,8,False,True,False,False,False,False,False,-2.1869656545557423,-2.4483969417591944,mp-3098,AlCuO2
1.7978,5.150013916338868,39.50664507667943,4,False,False,False,False,False,False,True,-2.1824288591148346,-2.3842297830473087,mp-3748,AlCuO2
0.13490000000000002,4.8983073774801245,93.92117845950877,10,False,False,False,False,False,False,True,-1.7762036605202949,-1.9979867130538052,mp-1178579,AlCuO3
0.0,4.756270435164536,193.4519105341512,20,False,False,False,True,False,False,False,-1.624333768754942,-1.9416936485353407,mp-1347317,AlCuO3
0.0,4.742751582207296,97.00166525182577,10,False,True,False,False,False,False,False,-1.7096905772495214,-1.9270284521625896,mp-1412082,AlCuO3
0.0,4.544378009211107,50.618016416915935,5,True,False,False,False,False,False,False,-0.36063533416397187,-0.7961631092539788,mp-1504314,AlCuO3
0.35000000000000003,4.636977017852498,198.42876062512912,20,False,False,True,False,False,False,False,-1.8900939663329253,-2.0559122811783532,mp-776172,AlCuO3
0.0,3.701741582376937,155.67948962481483,14,False,False,True,False,False,False,False,-1.0326329601956319,-1.3400584373340523,mp-1214974,AlCuO4F
0.0,9.014918994937128,55.87999733181149,4,False,False,False,False,True,False,False,-0.3755361249911273,-0.5960922488650319,mp-1228912,AlCuPd2
0.0,9.260732818942353,54.396737194834216,4,True,False,False,False,False,False,False,-0.11307710734693915,-0.5675423785138857,mp-866296,AlCuPd2
0.0,14.50983347572861,55.01191466606725,4,False,False,False,False,True,False,False,-0.4299659035232629,-0.7898919047955747,mp-12550,AlCuPt2
0.0,0.736774011332872,667.886913375573,4,False,False,False,True,False,False,False,2.796801697586971,2.3311811336658566,mp-1097150,AlCuRh2
0.0,9.481601650160094,51.898586171476985,4,True,False,False,False,False,False,False,-0.49699967595554384,-0.5616722388569545,mp-1183191,AlCuRh2
0.0,4.312867713505974,59.546200312443624,4,True,False,False,False,False,False,False,0.26852330222414084,-0.07315138312642018,mp-1067509,AlCuS2
1.254299999999999,3.782222495864674,67.90052279322231,4,False,False,False,False,False,False,True,-0.4256894458127335,-0.8886031725675685,mp-1096827,AlCuS2
1.6756,3.50773727814024,146.42766229382923,8,False,False,False,False,True,False,False,-0.6507902555149344,-0.9294771182193339,mp-4979,AlCuS2