band_gap,density,volume,nsites,crystal_Cubic,crystal_Hexagonal,crystal_Monoclinic,crystal_Orthorhombic,crystal_Tetragonal,crystal_Triclinic,crystal_Trigonal,formation_energy_pbe,formation_energy_r2scan,material_id,formula
0.0,6.099584173933645,67.63688016782493,4,True,False,False,False,False,False,False,0.48369042172856663,0.09346958712928179,mp-1067556,AlCuSe2
0.8921999999999991,4.7813858384767585,172.5678946576471,8,False,False,False,False,True,False,False,-0.5339274607963049,-0.7504502495105319,mp-8016,AlCuSe2
1.2404,4.099794373196334,163.26958566791353,8,False,False,False,True,False,False,False,-0.3386339600659032,-0.8771581247858201,mp-1229065,AlCuSeS
0.712699999999999,4.128246124787186,271.5089317769453,14,False,False,False,True,False,False,False,-0.26527567359996856,-0.9565792078944603,mp-1228961,AlCuSnS4
0.551299999999999,4.801565692513809,181.58905275395477,7,False,False,False,False,True,False,False,-0.5272109532623779,-0.7650458897597936,mp-1229027,AlCuSnSe4
0.0,6.610057825039153,86.85159788921497,4,True,False,False,False,False,False,False,0.43899932678988124,0.23894102529948474,mp-1066394,AlCuTe2
1.0186,5.249753008760489,218.71279783515297,8,False,False,False,False,True,False,False,0.09281346531765408,-0.4109391738551396,mp-8017,AlCuTe2
7.4257,2.902761552438926,144.11793929987138,12,False,False,False,False,False,False,True,-3.3259293831403935,-3.862937320227566,mp-1103295,AlF3
7.4904,2.774964836610843,100.50337880493078,8,False,False,False,False,False,True,False,-3.6026493453229897,-3.8418984908036786,mp-1182902,AlF3
7.4905,3.025755973150855,92.17311132128023,8,False,False,True,False,False,False,False,-3.619502663814379,-3.889239550231543,mp-1183007,AlF3
7.4507,2.726775486958584,102.27953987342649,8,False,False,True,False,False,False,False,-3.5718862500790762,-3.8045760189602538,mp-1251148,AlF3
7.4477,2.82353713897209,98.77445502480398,8,False,False,False,True,False,False,False,-3.7132620929051416,-3.7841813676084324,mp-1252764,AlF3
7.6012,3.264423327833108,85.43418366311855,8,False,False,False,False,False,False,True,-3.70356719822263,-3.912141299850722,mp-468,AlF3
6.7775,3.5297101780516202,79.013099681235,8,False,False,False,False,False,True,False,-3.4446413887628102,-3.5463251044045796,mp-635425,AlF3
7.420299999999999,3.015250988222245,46.247118935311995,4,True,False,False,False,False,False,False,-3.6715800447656193,-3.83918827337318,mp-8039,AlF3
0.0,5.969529360107075,23.03979004034681,2,True,False,False,False,False,False,False,-0.032089748108016194,-0.2848991756456252,mp-2658,AlFe
0.0,4.614313908264683,29.806533718959017,2,False,True,False,False,False,False,False,0.7961532898804782,0.4207572475454466,mp-985578,AlFe
0.0,6.117735277214223,75.27933028697036,6,True,False,False,False,False,False,False,0.4277302322554455,-0.14581956632912918,mp-31184,AlFe2
0.0,6.093348966420929,37.79030358178945,3,False,True,False,False,False,False,False,0.008909337222515357,-0.1458066359596849,mp-985579,AlFe2
0.0,0.45281072716228704,774.9177393999639,4,False,False,False,True,False,False,False,2.7910920835214874,2.358527256556856,mp-1096207,AlFe2Ge
0.0,7.755497404439652,45.24417284541743,4,True,False,False,False,False,False,False,0.05631736461617464,-0.1576934840621901,mp-1183187,AlFe2Ge
0.0,7.741150964994515,50.3260596624613,4,True,False,False,False,False,False,False,0.11654870605213503,-0.15484937008554606,mp-672259,AlFe2Mo
0.0,4.9734561905057975,120.6587585816269,12,False,False,False,True,False,False,False,-0.04171063284167552,-0.45021399497102704,mp-1246890,AlFe2N3
0.0,6.9448824545265655,47.19045902768298,4,True,False,False,False,False,False,False,0.037241654265656204,-0.12514111872997577,mp-31186,AlFe2Ni
0.0,6.485206186670039,42.6981917390675,4,True,False,False,False,False,False,False,-0.08741036557239147,-0.40787181031842457,mp-867878,AlFe2Si
0.0,10.869665050665338,49.26950432955548,4,True,False,False,False,False,False,False,0.1166649087319594,-0.23724408527252044,mp-862288,AlFe2W
0.0,6.701241054958837,48.2003719603683,4,True,False,False,False,False,False,False,0.17497451460122335,-0.15003911835682937,mp-1183162,AlFe3
0.0,6.650598911513688,48.567402085535015,4,False,False,False,True,False,False,False,0.2573687365861737,-0.09453809948819429,mp-1228919,AlFe3
0.0,6.710751133839217,48.13206524920219,4,True,False,False,False,False,False,False,0.5047556534866351,-0.1158219053214635,mp-2018,AlFe3
0.0,6.105405143121323,55.84468045961814,5,True,False,False,False,False,False,False,0.05776181652897058,-0.12620924713155365,mp-1206715,AlFe3B
0.0,6.300659849414099,54.43025908535758,5,True,False,False,False,False,False,False,0.060600985749728345,-0.16385933568327277,mp-22793,AlFe3C
0.0,3.248243697046597,245.12205562603808,19,False,False,True,False,False,False,False,-2.0834564587005566,-2.305567270891626,mp-1262698,AlFe3F15
0.0,6.412129531661077,50.634665689260885,5,True,False,False,False,False,False,False,0.011673709875962765,-0.2152319585703814,mp-1206123,AlFe3H
0.0,6.737893041831554,51.390098037995756,5,True,False,False,False,False,False,False,-0.10577212209597565,-0.29731455222874087,mp-1206767,AlFe3N
0.0,5.021773651598028,69.61085155162793,5,True,False,False,False,False,False,False,1.0210995326661316,0.5450617478865305,mp-1206753,AlFe3O
0.0,6.955049356592048,59.77457445723904,5,False,False,False,True,False,False,False,0.4502681411984792,-0.08062183824206015,mp-1228952,AlFe4
0.0,5.149337681053786,204.1249908645904,20,True,False,False,False,False,False,False,-1.1065613460624215,-1.325918344309529,mp-1045728,AlFe4(CuO4)3
0.0047,5.019111522890942,464.86037269280206,20,False,False,False,False,True,False,False,-0.04932664046563534,-0.22211599360842654,mp-1238368,AlFe4Hg2O2F
0.0,7.374150017976933,45.19279476525925,4,True,False,False,False,False,False,False,0.01191570845796057,-0.4226586478324444,mp-10884,AlFeCo2
4.2584,3.613702510073537,81.70973007781882,7,False,False,False,True,False,False,False,-3.093501918785003,-3.2969234186991963,mp-28901,AlFeF5
0.0,1.164526869932727,666.2829331457843,4,False,False,False,True,False,False,False,3.3412948401633265,2.9169634307584955,mp-1096072,AlFeIr2
0.0,14.308467504775212,54.22693788603931,4,True,False,False,False,False,False,False,-0.1554482993723041,-0.5204867245961714,mp-1183163,AlFeIr2
0.0,4.4946525604048695,81.89912155001635,8,False,False,False,False,True,False,False,-0.5460396822495858,-0.6692983954133223,mp-1245631,AlFeN2
0.0,4.459156273740886,165.1021286414241,16,False,False,False,True,False,False,False,-0.06595734917549184,-0.6518999043110378,mp-1245637,AlFeN2
2.1792,4.499455863270265,193.12520973604154,20,False,False,False,False,False,False,True,-1.9648866770356719,-2.574931753093369,mp-1178577,AlFeO3
1.3295,4.8435948356114125,179.40360141259467,20,False,False,False,True,False,False,False,-2.078506313072657,-2.3078586382289137,mp-1254277,AlFeO3
1.360799999999999,4.390702550514783,197.90872811237276,20,False,False,True,False,False,False,False,-2.1143501259903967,-2.297597117874202,mp-1259818,AlFeO3
0.6687000000000001,4.398481964523095,197.55869509092068,20,False,False,False,False,False,True,False,-1.9878937798912646,-2.346549978776856,mp-1264966,AlFeO3
0.0,4.126959209953927,105.2782827603756,10,False,True,False,False,False,False,False,-1.9511081115019453,-2.295944126811958,mp-1398131,AlFeO3
0.0,3.955828732210649,54.91632829150119,5,True,False,False,False,False,False,False,-0.7637445520990744,-1.150511751404809,mp-1421498,AlFeO3
2.1089,4.748823793892831,182.98391243946458,20,False,False,False,True,False,False,False,-1.8849744161850466,-2.4825731414135235,mp-776154,AlFeO3
0.0,8.991793573380052,53.3034822275615,4,True,False,False,False,False,False,False,-0.32246553162410546,-0.5982467513217778,mp-861953,AlFeRh2
0.0,0.776884657241648,609.0969432955211,4,False,False,False,True,False,False,False,3.3911279383192316,3.1750137120920225,mp-1096308,AlFeRu2
0.0,0.505416637925958,916.0805668173924,4,False,False,False,True,False,False,False,3.637229113297821,3.5876548239483768,mp-1097427,AlFeTc2
1.1429,3.859674066956857,151.4645086231851,8,False,False,False,False,True,False,False,-0.6391808386475388,-0.7753254333471146,mp-1228907,AlGa(CuS2)2
0.43560000000000004,5.019132513402924,178.5343486583023,8,False,False,False,False,True,False,False,-0.36885469421231865,-0.7143654091049296,mp-1228950,AlGa(CuSe2)2
4.8451,2.637344729395995,180.48037959385766,12,False,False,True,False,False,False,False,-2.2811057452044747,-2.881010282458734,mp-1228948,AlGa(PO4)2
3.9445,5.130332409401208,197.6479033602025,20,False,False,True,False,False,False,False,-2.40403459543876,-2.634787210854644,mp-1228994,AlGa2Bi(BO3)4
0.0,5.743606581348054,68.27368647033875,4,False,False,False,False,True,False,False,0.45819895774583475,0.09569463115269426,mp-1183208,AlGa3
2.180799999999999,5.42602653015523,89.41568612393719,8,True,False,False,False,False,False,False,-0.6138197462859128,-0.8961773452713242,mp-1019508,AlGa3N4
2.2393,5.429149012022369,89.36426022681383,8,False,False,True,False,False,False,False,-0.4411633496077884,-0.9412705066971995,mp-1228943,AlGa3N4
0.700499999999999,4.488243147095224,91.21657145338672,4,False,False,False,False,False,False,True,0.14170726263104416,-0.47238091921580094,mp-1228891,AlGaAs2
0.0,0.574821697631482,619.8503135234205,4,False,False,False,True,False,False,False,2.4656064065619527,2.2809531803303087,mp-1097119,AlGaCo2
0.0,7.8584975719624826,45.33988923889946,4,True,False,False,False,False,False,False,-0.14728003137773238,-0.36748689408103263,mp-1183148,AlGaCo2
0.0,7.802780858175699,45.663644279283716,4,False,False,False,False,True,False,False,0.07909669156036173,-0.34671785210040706,mp-1228893,AlGaCo2
0.7461000000000001,4.476543572845931,165.38331036126056,8,False,False,True,False,False,False,False,-0.33445945639980235,-0.7035661671130298,mp-1229038,AlGaCu2(SeS)2
0.020599999999999,1.122102521988585,712.0110008987745,4,False,False,False,True,False,False,False,2.844356818860408,2.250432295358256,mp-1097204,AlGaIr2
0.0,14.642940975573923,54.56208156031426,4,True,False,False,False,False,False,False,-0.3632787747011045,-0.775354519836258,mp-1183158,AlGaIr2
2.6642,4.74544495846108,43.64164186160555,4,False,False,False,False,True,False,False,-0.9141067029930587,-1.1578685974859104,mp-1008556,AlGaN2
2.719999999999999,4.742663550680604,43.66723617183428,4,False,False,False,False,False,False,True,-0.7790895347711526,-1.1418386756400607,mp-1228894,AlGaN2
0.0,0.602510428893525,590.0429511549802,4,False,False,False,True,False,False,False,2.2777904983969584,1.8156567732691247,mp-1095779,AlGaNi2
0.0,7.541407609653156,47.14067319619911,4,True,False,False,False,False,False,False,-0.09898351032039547,-0.5693657319657299,mp-1183173,AlGaNi2
0.0,8.462869546451437,88.07388109684923,8,False,False,False,False,True,False,False,0.023061422166094594,-0.37711441581852534,mp-1228918,AlGaNi6
3.0761,5.268750946247227,182.42240177281883,20,False,False,False,True,False,False,False,-2.280239158061628,-2.7424595474078326,mp-756686,AlGaO3
1.6344,3.2317818954676882,81.51786118779647,4,False,False,False,False,True,False,False,-0.14431640042124413,-0.6219807071178699,mp-1228888,AlGaP2
0.6435999999999991,0.6614652528685221,777.0790634412053,4,False,False,False,True,False,False,False,1.6558732324056271,1.2077256490536923,mp-1095917,AlGaPd2
0.0,0.696302242312361,712.6833737277218,4,False,False,False,True,False,False,False,3.007595488138442,2.568709366728026,mp-1096345,AlGaRu2
0.0,9.270694146621043,53.528141834581064,4,True,False,False,False,False,False,False,-0.25082506954752926,-0.5105896802449248,mp-1183218,AlGaRu2
0.17270000000000002,4.832667324023387,116.90358551122266,4,False,False,False,False,False,False,True,0.08460691546499939,-0.19272674425015035,mp-1228895,AlGaSb2
0.0,5.427653196999068,74.92530520199662,4,False,False,False,False,True,False,False,0.7319621837262525,0.31912933111268293,mp-1183203,AlGe3
0.0,8.085221002654562,269.1179900376845,18,False,False,False,False,False,True,False,-0.018717442870310436,-0.20830901491774384,mp-1228992,AlGe3Mo2
0.0,7.268030535404557,134.04081333498203,9,False,False,False,False,False,False,True,0.08222381188648915,-0.25833430086284004,mp-1228900,AlGeMo
0.0,9.419936073827103,53.194291311049604,4,True,False,False,False,False,False,False,-0.2768023643491031,-0.5007087317840396,mp-867904,AlGeRu2
4.496700000000001,5.2416258480366364,206.0402960092296,18,False,False,False,False,False,True,False,-2.2469448629486664,-2.5453921344422903,mp-643387,AlH2PbO2F3
3.110699999999999,1.10135507929712,180.95915150067822,16,True,False,False,False,False,False,False,0.4281501553285958,-0.06658298009967818,mp-1106356,AlH3
2.197699999999999,1.5174827710326961,65.66805385043641,8,False,False,False,False,False,False,True,0.25503277739048646,-0.06055282112749762,mp-23933,AlH3
0.0,0.21499811998897903,510.20205577444085,14,False,False,True,False,False,False,False,1.2735919049019926,0.8906590401219796,mp-1214861,AlH6
5.8134999999999994,1.884069948991218,104.03348280466102,12,False,False,True,False,False,False,False,-1.5220578230219879,-1.597617317173121,mp-1228986,AlH6N2F3
5.9138,3.51151352096652,56.73501158894412,8,False,False,False,True,False,False,False,-2.189484460408417,-2.597637158202641,mp-1078520,AlHO2
0.11129999999999901,0.30804968406633204,646.7325584527133,8,False,False,True,False,False,False,False,0.7794370543586603,0.3759401802841511,mp-1247827,AlHO2
5.6572,3.423455784202743,58.194343045433925,8,False,False,False,True,False,False,False,-1.9866445568166813,-2.5497268994409135,mp-23807,AlHO2
5.1403,3.146310424072464,63.32043996119724,8,False,False,False,True,False,False,False,-2.3916221718054502,-2.6657034571262166,mp-625054,AlHO2
4.6632,2.9201552225461582,68.22437340610252,8,False,False,True,False,False,False,False,-2.264221613662908,-2.6091864424844498,mp-625055,AlHO2
4.4054,2.74020575611007,72.70467185266611,8,False,False,False,False,False,True,False,-2.140453395255887,-2.418114348746358,mp-625075,AlHO2
5.546000000000001,3.410058985226262,116.84593209084947,16,False,False,False,True,False,False,False,-2.116207590222979,-2.6777874213329955,mp-625152,AlHO2
5.495400000000001,3.424349573975823,116.35830747002821,16,False,False,False,True,False,False,False,-2.356420607670542,-2.658629736300595,mp-625404,AlHO2
4.8339,2.993746822883124,133.09459489624132,16,False,False,False,True,False,False,False,-2.276975273946949,-2.623239265515425,mp-625420,AlHO2
4.721100000000001,3.421171762724664,58.2331943918839,8,False,False,False,True,False,False,False,-2.0312233401050195,-2.3971857820986138,mp-674463,AlHO2
5.6906,2.8949396725916463,160.6672178713814,16,False,False,True,False,False,False,False,-1.9334913569952963,-2.2552486502481504,mp-1105277,AlHSO5
0.0,6.924703747077972,266.2502848926271,20,False,False,False,False,True,False,False,-1.6979245006825803,-1.9697382189145691,mp-1182875,AlHg2O2F5
0.0,6.227821396088822,296.04322734984504,20,False,False,False,False,True,False,False,-1.3787769695652548,-1.7238555253938166,mp-1189716,AlHg2O2F5
0.0,7.7013697396343,167.04655643182733,12,False,False,False,False,False,False,True,-1.6088257823127023,-2.0880911777880344,mp-1095623,AlHg3(OF3)2
0.0,2.716312486802755,326.9272836743553,19,False,False,False,False,False,False,True,-0.08463896701692206,-0.23297830346195436,mp-1182904,AlI2NO15
3.2639,3.7331499892699993,725.3856847943193,16,False,False,True,False,False,False,False,-0.6352687395029688,-0.9424388808661053,mp-30930,AlI3
0.0,4.354344657503391,364.3656230838416,18,False,False,False,True,False,False,False,1.247614884981345,1.0651791798988601,mp-1106104,AlI3N5
0.0,6.000573788827599,264.4036320671606,18,False,False,False,True,False,False,False,1.6970207865609483,1.16448343960077,mp-1214899,AlI3N5
2.291,2.487460068647398,489.46335736234505,16,False,False,True,False,False,False,False,-1.2534704157175662,-1.2930741503731744,mp-27935,AlICl6
1.6572,3.84318433727859,293.61210191168016,12,False,False,False,True,False,False,False,-2.0541920987574054,-2.2627767562867684,mp-1214837,AlIO
1.0686,4.297734585710501,187.699616705752,8,False,False,False,False,True,False,False,-0.373232518271572,-0.6882783381034329,mp-1228935,AlIn(AgS2)2
0.508799999999999,5.147794187247591,217.2128511516117,8,False,False,False,False,True,False,False,-0.10124170514609707,-0.622744359712528,mp-1228926,AlIn(AgSe2)2
0.7319999999999991,4.059538012329766,162.45337356186482,8,False,False,False,False,True,False,False,-0.49754635056720126,-0.7546441226741802,mp-1229077,AlIn(CuS2)2
0.24070000000000003,5.115242565748683,189.81886994371922,8,False,False,False,False,True,False,False,-0.4343335297852288,-0.6370572414377452,mp-1229046,AlIn(CuSe2)2
0.8864999999999991,5.9110926495962115,167.78605751894185,12,False,False,False,True,False,False,False,-0.04043347562557553,-0.5822202633555815,mp-1245824,AlIn2N3
0.0425,5.297212925493132,394.1308442059833,16,False,False,False,False,False,True,False,-0.5173100227186866,-0.5844404185757167,mp-1229179,AlIn3(CuSe2)4
0.0,5.297212194058168,394.13089862726554,16,False,False,False,False,False,True,False,0.37611620447573674,0.40299964057546195,mp-1345578,AlIn3(CuSe2)4
0.0,4.63098618567449,54.721770085189306,3,True,False,False,False,False,False,False,1.4135842935413327,1.1157551676467394,mp-631543,AlInB
0.0,5.5452647507242645,80.65526608220873,7,False,False,False,False,False,False,True,-1.8756000003195574,-2.073620752998269,mp-1228995,AlInCuO4
0.029799999999999,4.968221828656634,192.78590652590418,6,False,False,False,True,False,False,False,-0.07434469256961102,-0.20394743736987164,mp-1228917,AlInGaSb3
1.6253000000000002,5.397905906023322,104.47793031916136,8,False,False,False,False,True,False,False,-0.45674640978009806,-0.9012890093711511,mp-1245856,AlInN2
1.5194,5.398047677963882,208.950372713869,16,False,False,False,True,False,False,False,-0.5446943210593191,-0.9199136566489052,mp-1247201,AlInN2
0.0,6.212264483894981,202.9318362183001,20,False,False,False,True,False,False,False,-2.4318872264438425,-2.6384939673690777,mp-1178550,AlInO3
0.0,6.14860026112864,51.258261443683864,5,True,False,False,False,False,False,False,-2.1345503101339673,-2.238139014400286,mp-1183160,AlInO3
2.162,5.613715616053324,112.28447654040943,10,False,True,False,False,False,False,False,-2.2447805310913105,-2.6940728072835816,mp-754157,AlInO3
0.237599999999999,4.815494686234951,132.87069941091585,4,False,False,False,False,False,False,True,0.1802809866937961,-0.21301970901164122,mp-1228866,AlInSb2
0.3185,4.963209713761058,128.9162021897973,4,False,False,False,False,True,False,False,0.04764446543309053,-0.18982034715869414,mp-1228890,AlInSb2
0.0,13.554700780623982,26.853247635479867,2,True,False,False,False,False,False,False,-0.49360721059284907,-1.0497406857634901,mp-1885,AlIr
0.0,9.019509478935857,49.1923229250551,5,True,False,False,False,False,False,False,-1.0612647659489218,-1.234982306292581,mp-1183133,AlIrO3
2.3592,6.826130619956443,150.48115954792593,12,False,False,False,False,False,True,False,-2.146031906472044,-2.2205483956476213,mp-1047580,AlMo(WO4)2
0.0,8.613730976106718,121.37371239503442,8,True,False,False,False,False,False,False,-0.06212256423218969,-0.28248534817557985,mp-259,AlMo3
1.4508,3.683221138552952,297.44837391102067,20,False,False,False,False,False,True,False,-0.3584761154533237,-0.6632692104922558,mp-1246835,AlMoN3
1.4177,5.101153769802972,222.55271337121226,20,False,False,False,True,False,False,False,-2.1102152661015965,-2.4591246534688893,mp-1373731,AlMoO3
0.0,4.962853092618609,114.37731397711198,10,False,True,False,False,False,False,False,-1.7789690436784495,-2.05711300247812,mp-1389151,AlMoO3
0.0,4.409089114959139,64.37132382637047,5,True,False,False,False,False,False,False,-1.0503895995228554,-1.4408519701592017,mp-1433892,AlMoO3
3.268700000000001,3.421648366361545,39.78349858246675,4,False,True,False,False,False,False,False,-1.4521128555035645,-1.5682115823205438,mp-13178,AlN
4.417499999999999,4.041045569153921,16.842812163752075,2,True,False,False,False,False,False,False,-0.9911048437640101,-1.5244877634804184,mp-1330,AlN