band_gap,density,volume,nsites,crystal_Cubic,crystal_Hexagonal,crystal_Monoclinic,crystal_Orthorhombic,crystal_Tetragonal,crystal_Triclinic,crystal_Trigonal,formation_energy_pbe,formation_energy_r2scan,material_id,formula
6.998399999999999,3.084841773488932,170.82472057510878,18,False,False,False,False,False,False,True,-2.5486341477144734,-2.714164801158891,mp-11653,BPO4
7.2565,2.798255934324688,62.77329478821059,6,False,False,False,False,True,False,False,-2.2961279455362495,-2.746753120641861,mp-3589,BPO4
2.276,1.994541415192164,141.5693693903541,6,False,False,False,True,False,False,False,-0.3453413658971895,-0.6483866972520702,mp-27724,BPS4
0.0,9.75858065311388,215.22457188740466,8,False,True,False,False,False,False,False,1.284374134537539,0.9840474616182847,mp-1183296,BPb3
0.0,9.741156187118827,45.34560992453003,5,True,False,False,False,False,False,False,-0.8129849903102705,-1.0514842802735045,mp-984554,BPbO3
0.0,9.719012841300927,76.42365101236882,6,False,False,False,True,False,False,False,0.04794050674551384,-0.2822701801570634,mp-7424,BPd2
0.0,7.99211309473204,63.07029572617219,4,True,False,False,False,False,False,False,1.2869193236584782,0.9049500216963803,mp-631580,BPd2Br
0.0,10.743006975603265,204.0753734951198,16,False,False,False,True,False,False,False,-0.09329816173163108,-0.23804815594804796,mp-20517,BPd3
0.0,9.80420016098134,73.92855570247266,5,False,False,False,True,False,False,False,0.20552110638871451,0.030423310280172037,mp-1228682,BPd4
0.0,10.435381996644738,86.39117623837227,6,False,False,False,False,True,False,False,0.16622971360016828,-0.11719608378444452,mp-1228665,BPd5
0.0,10.577539421184838,203.8734056608538,14,False,False,False,True,False,False,False,-0.09139667744954524,-0.1918976916607341,mp-1105080,BPd6
0.0,10.949172289506455,196.95360784263397,14,False,False,True,False,False,False,False,-0.0181335714582197,-0.20425887096161613,mp-1214755,BPd6
0.0,6.806833934712135,40.30795288597972,5,True,False,False,False,False,False,False,-0.32798286386503095,-0.586717774104016,mp-1183242,BPdO3
0.0,14.38971917085515,47.51957797898967,4,False,True,False,False,False,False,False,0.4709200316902421,0.050566580101706005,mp-1096829,BPt
0.0,15.519282246671516,44.06088963179144,4,False,True,False,False,False,False,False,0.3956477156002867,0.04013414351660351,mp-2192,BPt
0.0,17.31379483581424,76.91454134698228,6,False,True,False,False,False,False,False,0.12610974087180363,-0.1832666309378209,mp-1077788,BPt2
0.0,17.332282199939584,76.83250096037813,6,False,False,False,True,False,False,False,0.22237742349186781,-0.23736301772015794,mp-2049185,BPt2
0.0,16.195295221865806,122.23128804943954,8,False,True,False,False,False,False,False,0.2384430161150975,0.010620002760261628,mp-861943,BPt3
0.0,10.291807458038486,40.96458071752925,5,True,False,False,False,False,False,False,0.0382179066560014,-0.3472418005910939,mp-1183277,BPtO3
0.0,8.828158977086561,42.77917768747208,4,False,True,False,False,False,False,False,0.06901192831012852,-0.20892573863398395,mp-1063752,BRh
0.0,9.336167613158457,40.451435447855424,4,False,True,False,False,False,False,False,-0.08925073134005376,-0.405299304438356,mp-567164,BRh
0.0,10.206927683437812,140.9667256754271,12,False,False,False,True,False,False,False,-0.019208618641736327,-0.2489140329060024,mp-21502,BRh2
0.0,7.649510798951646,97.14753070783864,8,False,False,False,True,False,False,False,0.7350515791751997,0.8264482122196526,mp-1214978,BRu
0.0,10.46549358456595,99.650175888847,8,False,True,False,False,False,False,False,0.7371999158803894,0.42046628227432253,mp-1183231,BRu3
0.7506,5.974007196039766,36.84952451081099,2,True,False,False,False,False,False,False,0.787384970831659,0.31753628139214485,mp-997618,BSb
1.4054,6.870745471143401,43.640418944934396,5,True,False,False,False,False,False,False,-0.8216515184970942,-1.2601593508843603,mp-1183211,BSbO3
3.762,3.85086307904932,155.7272770647208,10,False,False,False,False,False,True,False,-1.7820724451446575,-2.244774410072399,mp-753806,BSbO3
3.7211,3.828465813252713,313.2766235360048,20,False,False,True,False,False,False,False,-1.7422878590624011,-2.236682920506157,mp-755829,BSbO3
2.1522,4.409238874201632,352.52513281924956,14,False,False,True,False,False,False,False,-0.3862970490938775,-0.6753281096563115,mp-1228703,BSbPbS4
0.0,5.060293874997788,67.0031261326305,4,True,False,False,False,False,False,False,1.7920053424910494,1.444874327624697,mp-631529,BSe2Cl
0.0,6.713955219597869,84.32166775926447,4,True,False,False,False,False,False,False,1.3483270720390166,1.1184941256714858,mp-631524,BTe2As
0.0,6.960377106887915,44.47169373442934,5,True,False,False,False,False,False,False,-0.5695753605707236,-0.8288105300941782,mp-1183194,BTeO3
0.0,15.575469633969883,41.504442234962355,4,False,False,False,True,False,False,False,0.046710453715671174,-0.38096408213309907,mp-1008487,BW
0.0,15.586997529592988,82.94749241836743,8,False,False,False,False,True,False,False,0.12087255057532037,-0.3050937977617476,mp-7832,BW
0.0,17.01973978059663,73.85531153337861,6,False,False,False,False,True,False,False,0.033399929481186044,-0.2626749669031057,mp-1113,BW2
0.0,2.752244697095029,165.70971951706846,2,False,True,False,False,False,False,False,0.9603032652722883,0.7527801585854121,mp-1008283,Ba
0.0,3.481574892943981,130.99637687595612,2,False,False,False,True,False,False,False,0.31873919882848956,0.024944107509433176,mp-1058581,Ba
0.0,3.375148843650796,67.56349392648343,1,True,False,False,False,False,False,False,0.4031799323393672,-0.01653710151445904,mp-10679,Ba
0.0,4.193889148209845,217.4943975296203,4,False,False,False,True,False,False,False,0.5969249050799679,0.5133244862236171,mp-1096835,Ba
0.0,3.514308831818658,129.77621450586565,2,False,False,False,True,False,False,False,-0.044351887970585646,0.02359533837932249,mp-1096840,Ba
0.0,3.508308296137423,129.9981809751681,2,True,False,False,False,False,False,False,0.21741947257626246,-0.005647840052589196,mp-122,Ba
0.0,3.953586096865328,57.678482980244524,1,False,False,False,False,True,False,False,0.4761063761128752,0.3950066283755299,mp-1977763,Ba
0.0,3.369293512696694,135.36181845817492,2,False,True,False,False,False,False,False,0.23975151535290234,0.046618006783454916,mp-56,Ba
0.0,3.4824737744479,261.9251292827098,4,False,False,False,False,True,False,False,0.4080604996773793,0.1577949931397499,mp-570384,Ba
0.0,3.618770582979633,63.01500555783136,1,False,True,False,False,False,False,False,0.407486468646548,0.16168402683181007,mp-605790,Ba
0.0,3.79232810550788,120.26219359436928,2,True,False,False,False,False,False,False,0.8139388701706107,0.2636734665665544,mp-639747,Ba
0.0,7.177096954932917,115.2999171501376,5,False,False,False,False,True,False,False,0.016833704023680972,-0.35058563882755084,mp-13910,Ba(AgGe)2
1.7273,6.821766535397419,187.4619492921981,10,False,False,False,False,True,False,False,-1.0537308757250428,-1.3929148014466655,mp-1096838,Ba(AgO)2
0.8761000000000001,5.696195130144422,121.6190673247031,5,False,False,False,False,False,False,True,-0.6703899740601547,-1.0473474442606943,mp-8579,Ba(AgS)2
0.0,7.222389330211834,135.76127082725898,5,False,False,False,False,True,False,False,-0.2687124503337804,-0.46303462480947843,mp-7882,Ba(AgSn)2
0.673299999999999,6.624990724388473,609.8394280098713,20,False,False,False,True,False,False,False,-0.4968591187202878,-0.9529692828816806,mp-18501,Ba(AgTe)2
0.0,4.873487613753909,112.6914071505355,5,False,False,False,False,True,False,False,-0.08650395798031803,-0.3703966382403035,mp-1207061,Ba(AlGa)2
0.0,4.668091173010253,119.72511699654208,5,False,False,False,False,True,False,False,0.00971596358618182,-0.3991824566894666,mp-31059,Ba(AlGe)2
0.0,4.623292157090168,483.54094255720463,20,False,False,False,True,False,False,False,-0.25735639895602336,-0.35783959882952365,mp-570482,Ba(AlGe)2
3.0544000000000002,4.08579950013802,412.21274074267575,14,False,False,False,True,False,False,False,-1.5121508590988337,-1.566433641968898,mp-1228740,Ba(AlSe2)2
0.0,3.536707393169054,116.18682024619405,5,False,False,False,False,True,False,False,0.1592961057037563,-0.2240815857575711,mp-12863,Ba(AlSi)2
0.0,3.497840252258774,469.9114385091343,20,False,False,False,True,False,False,False,0.08707395691462946,-0.27586628761050497,mp-5506,Ba(AlSi)2
0.0,3.403592833192571,241.46177659451496,10,False,False,False,True,False,False,False,-0.05531295515362558,-0.1918808972247913,mp-567377,Ba(AlSi)2
1.5444,4.580157621476996,508.7963699644138,14,False,False,False,False,True,False,False,-0.9709398624292961,-1.0914384084022664,mp-28505,Ba(AlTe2)2
1.504699999999999,4.586249681734549,254.06025984077903,7,False,False,False,False,True,False,False,-0.6636507618615927,-1.0931151760456284,mp-38394,Ba(AlTe2)2
0.0,7.398001250469284,323.36876218808646,17,True,False,False,False,False,False,False,-0.2935129274595112,-0.447865391332274,mp-1214761,Ba(As3Ru)4
2.7763,4.938234007396964,257.68852078019756,18,False,False,True,False,False,False,False,-1.6425852464560495,-2.1965964717707154,mp-1105233,Ba(AsO3)2
0.0,7.7656540883452365,213.83555367076698,10,False,False,False,False,True,False,False,-0.6139606461971814,-0.7892224771634949,mp-571350,Ba(AsPd)2
0.0,7.562025146497622,109.79684075541978,5,False,False,False,False,True,False,False,-0.35623391415874267,-0.7373150669477103,mp-6962,Ba(AsPd)2
0.0,7.493866818033465,110.79546660750005,5,False,False,False,False,True,False,False,-0.5081552963623478,-0.7382719183495641,mp-8237,Ba(AsPd)2
0.0,7.60050834469143,107.70523556771155,5,False,False,False,False,True,False,False,-0.42174636833765056,-0.8373912632207742,mp-568113,Ba(AsRh)2
0.0,7.5170204510359735,108.09052710158323,5,False,False,False,False,True,False,False,-0.4733834493171279,-0.6897311935824909,mp-4109,Ba(AsRu)2
1.1785,9.09688780849218,217.3158006240782,14,False,False,False,False,True,False,False,-1.1700557173394153,-1.5062346013932553,mp-9297,Ba(AuO2)2
0.0,12.67726376212121,176.97137659232556,11,False,False,False,False,False,False,True,-0.11875261429670189,-0.38163214043200333,mp-1228679,Ba(B2Pt3)2
0.0,10.06570950950332,89.64183784306638,5,False,False,False,False,True,False,False,-0.35033270403388794,-0.5153758128869679,mp-12073,Ba(BIr)2
0.0,6.881865428473414,88.01366958251846,5,False,False,False,False,True,False,False,-0.05612747185364718,-0.46557520547133113,mp-7349,Ba(BRh)2
2.7453000000000003,3.1260954367769562,305.1229717227263,14,False,False,True,False,False,False,False,-1.0504314311612126,-1.2827388876101167,mp-30126,Ba(BS2)2
1.7096,4.539392425453564,462.8980770193898,18,False,False,False,True,False,False,False,-0.6246712859005379,-0.8560004713491326,mp-570823,Ba(BSe3)2
1.178999999999999,4.478603722728969,135.9728937457125,10,False,False,False,False,True,False,False,-0.9571161621912767,-1.1930889492419214,mp-12927,Ba(BeN)2
0.0,6.484281829074044,282.01401480604204,13,False,False,False,False,False,False,True,-1.6325843980500665,-1.5487326595005473,mp-1047467,Ba(BiO2)4
0.0,9.572845761963215,266.4842308667739,10,False,False,True,False,False,False,False,-0.3711271573900214,-0.6456475557249269,mp-571599,Ba(BiPd)2
0.0,3.903438219316355,280.0298108134175,10,False,False,True,False,False,False,False,-0.15737497075806162,-0.8328763756277495,mp-1079338,Ba(BrO)2
4.3458,3.986532377398327,327.50771156821014,18,False,False,False,True,False,False,False,-0.7380968995930743,-1.104000746408709,mp-28514,Ba(BrO3)2
4.1953,4.003796061017979,326.0955543480764,18,False,False,True,False,False,False,False,-0.87072219807127,-1.194453024876784,mp-554626,Ba(BrO3)2
2.3399,3.160298633171569,262.05391179814404,18,False,False,False,False,True,False,False,-1.2343217160479072,-1.4717342063495973,mp-30237,Ba(CO)4
0.0,10.141267184025038,319.9950171028747,14,False,False,False,False,True,False,False,-0.13235163107819412,-0.42503393133881856,mp-1104609,Ba(Cd2Pt)2
0.15759999999999902,6.085725269374697,139.70118798705417,5,False,False,False,False,False,False,True,-0.23276350972371954,-0.5769857994239356,mp-8281,Ba(CdAs)2
0.0,6.658384209348282,126.54807105344932,5,False,False,False,False,True,False,False,-0.21383036029632574,-0.35672411054332415,mp-1069712,Ba(CdGe)2
0.6835999999999991,5.423798232384745,129.8405316603431,5,False,False,False,False,False,False,True,-0.09805022365680727,-0.5871875448308508,mp-8279,Ba(CdP)2
0.0,6.097870414045221,164.93250391350426,5,False,False,False,False,False,False,True,-0.1966113006838125,-0.5710364007756771,mp-8150,Ba(CdSb)2
0.0,5.214325920692472,347.63986240130527,14,False,False,False,False,True,False,False,-1.870909945429522,-2.265878165035809,mp-38417,Ba(CeS2)2
0.0,3.4669330834022842,460.25034731638044,20,False,False,True,False,False,False,False,-0.5274936976785399,-0.9396131789003018,mp-1190301,Ba(ClO)2
0.0,3.267288693680748,488.373481916277,20,False,False,True,False,False,False,False,-0.6148496308459006,-0.9339712799338972,mp-726753,Ba(ClO)2
5.2826,3.31092954613642,305.16191714063297,18,False,False,False,True,False,False,False,-0.8491757146049761,-1.2385134203845571,mp-28512,Ba(ClO3)2
0.0,6.7782780521438735,99.22565523624685,5,False,False,False,False,True,False,False,-0.21295157293879435,-0.5765907663536034,mp-20563,Ba(CoAs)2
0.0,6.742588243718048,98.62706800290054,5,False,False,False,False,True,False,False,-0.12147019064114861,-0.3887410035957837,mp-1070253,Ba(CoGe)2
0.0,5.688027421161573,165.35642460927005,10,False,False,False,False,True,False,False,-0.2855070219345362,-0.5868944356945093,mp-1029457,Ba(CoN)2
0.0,3.970249574090745,209.56399674069073,13,False,False,False,False,False,False,True,-0.9113090557107019,-1.210890804427889,mp-1041292,Ba(CoO2)4
0.0,5.860978677362443,110.82457083384611,5,False,False,False,False,True,False,False,0.07342556172427805,-0.49553708169831934,mp-571339,Ba(CrAs)2
0.0,6.572461135519,68.04715843688814,5,False,False,False,False,False,False,True,-0.32466379334808515,-0.4993178959436724,mp-1246467,Ba(CrN)2
0.0,7.038500555118921,127.71751467920447,7,False,False,False,False,False,False,True,-0.245665334862866,-0.41050632274952426,mp-16052,Ba(Cu2As)2
0.0,7.32773739886947,214.23294286981377,13,False,False,False,False,True,False,False,0.11026820695469948,-0.1900264934248458,mp-14786,Ba(Cu2As)4
0.0,6.457050745873904,197.9130086266051,13,False,False,False,False,True,False,False,0.022331056157525692,-0.281443575608728,mp-14785,Ba(Cu2P)4
0.0,7.298174567370304,152.09022732656666,9,False,False,False,False,True,False,False,0.055905861322227204,-0.2768650797547016,mp-505215,Ba(Cu3As)2
0.039099999999999004,0.14136783306050002,6819.27991938967,9,False,False,False,False,True,False,False,3.1981427164323057,2.903220467634914,mp-1247881,Ba(Cu3P)2
0.0,6.580623174818893,104.53395501324908,5,False,False,False,False,True,False,False,-0.24281152319521987,-0.4902114445093069,mp-9247,Ba(CuAs)2
1.386299999999999,5.907405636175781,166.64280980517356,10,False,False,False,False,True,False,False,-1.0931091342096817,-1.5680996487183365,mp-7374,Ba(CuO)2
0.0,5.459938476606164,277.06899215554375,18,False,False,False,False,True,False,False,-1.2314903512159212,-1.3331368186094539,mp-1147739,Ba(CuO)4
0.0,3.046685255583282,711.5199866993706,20,False,False,False,True,False,False,False,0.32530367492582013,0.14854170992423812,mp-1215132,Ba(CuP)2
0.0,4.895253224296198,263.443224392664,14,False,False,False,True,False,False,False,-0.18014271167542117,-0.5131558989015045,mp-568474,Ba(CuP2)2
0.5011999999999991,5.665344772918369,96.29924950027826,5,False,False,False,False,True,False,False,-1.066824616173119,-1.127227764455658,mp-4255,Ba(CuS)2
0.9028,5.62422080829076,388.01353530653097,20,False,False,False,True,False,False,False,-0.8529596686648045,-1.1340399836129942,mp-5970,Ba(CuS)2
0.0,7.115280915697678,237.0820106593174,10,False,False,False,False,True,False,False,0.006754581859200637,-0.52366753388211,mp-1080702,Ba(CuSb)2
0.3703,6.405963448292098,109.47774124995271,5,False,False,False,False,True,False,False,-0.7345005156931046,-1.036266572503242,mp-10437,Ba(CuSe)2
0.4887,6.427683069359752,436.43123114882104,20,False,False,False,True,False,False,False,-0.7358628885796965,-1.0517658102891017,mp-4473,Ba(CuSe)2
0.600699999999999,6.587845899390267,523.9027520831872,20,False,False,False,True,False,False,False,-0.7818334589425531,-0.8717055401724992,mp-30133,Ba(CuTe)2
0.0,6.476447027459748,204.53280677003286,10,False,False,True,False,False,False,False,-0.3199178182059217,-0.4628157466785058,mp-1232847,Ba(FeAs)2
0.0,6.117726591502087,216.52583988696,10,False,False,False,True,False,False,False,-0.4082025990485886,-0.6613820416585817,mp-2903350,Ba(FeAs)2
0.0,6.757964869900642,98.00627214885581,5,False,False,False,False,True,False,False,-0.30711739851343417,-0.5876908150199904,mp-568961,Ba(FeAs)2
0.0,7.02194958490515,65.51169248277056,5,False,False,False,False,False,False,True,0.3155416312505653,-0.16932242954050775,mp-1245930,Ba(FeN)2
0.0,5.2664865999661075,174.69703685898872,10,False,False,False,False,True,False,False,-0.044119319891230385,-0.4518413798141854,mp-1245963,Ba(FeN)2
0.0,4.284986640940728,242.60191000364992,14,False,True,False,False,False,False,False,-1.920383058540554,-2.009205541946903,mp-19285,Ba(FeO2)2
0.0,3.844075623677431,211.10643350378135,13,False,False,False,False,False,False,True,-1.2230337878505841,-1.568506045783742,mp-1412406,Ba(FeO2)4
0.0,5.795116778056029,89.10411303253996,5,False,False,False,False,True,False,False,-0.43694644558262735,-0.8286469988933648,mp-4883,Ba(FeP)2
0.0,4.20867923915767,148.85505923113143,7,False,False,False,False,True,False,False,-0.679276507078951,-1.1644383344916747,mp-27660,Ba(FeS2)2
0.0,4.17291625671559,150.13078597525922,7,False,False,False,False,True,False,False,-0.599103347014742,-1.1146319272958487,mp-675078,Ba(FeS2)2
0.0,3.872987021819715,161.75711250777601,7,False,False,False,False,True,False,False,-0.9753694744884643,-1.1278377552112286,mp-676036,Ba(FeS2)2
0.0,7.652148202404765,395.34191263258253,17,True,False,False,False,False,False,False,-0.13646459374037379,-0.3340859716627345,mp-1189647,Ba(FeSb3)4
0.0,5.614316529995814,167.06701706809102,7,False,False,False,False,True,False,False,-0.8501944701764776,-0.9115972338105791,mp-1077893,Ba(FeSe2)2
1.3062,5.356669131520892,528.995052075059,20,False,False,True,False,False,False,False,-0.38119333986604725,-0.6717754562198526,mp-1183302,Ba(GaAs)2
0.0,5.239264828472346,88.3596920044682,5,False,False,False,False,False,False,True,-0.13210963733304693,-0.5009964112790073,mp-1206799,Ba(GaH)2
2.0259,4.2095223709041925,268.8489781928282,14,False,False,True,False,False,False,False,-1.904723083940206,-2.333254076880264,mp-1229241,Ba(GaO2)2
1.427699999999999,4.575314766103028,491.73330493306423,20,False,False,True,False,False,False,False,-0.36675784940352046,-0.7043052491696542,mp-1105728,Ba(GaP)2
0.0,9.609330591071629,461.00259539255364,20,False,False,True,False,False,False,False,-0.5615967734882287,-0.7992118299578244,mp-504985,Ba(GaPt)2
1.8578000000000001,4.745645848121506,414.71996409700495,14,False,False,False,True,False,False,False,-1.0403000503591189,-1.3947169794608434,mp-7841,Ba(GaSe2)2
0.5291,5.1740892804585155,252.63025970763434,7,False,False,False,False,True,False,False,-0.8511035669111684,-1.001148648241645,mp-38117,Ba(GaTe2)2
0.0,8.95355356030005,331.8541554519579,17,True,False,False,False,False,False,False,0.24414201531304097,-0.3981683232987443,mp-642304,Ba(Ge3Pt)4
0.028599999999999,5.306738360872226,541.2744345971146,20,False,False,False,False,True,False,False,-0.43840365356770783,-0.4764714285445332,mp-27810,Ba(GeAs)2
0.0,9.78861717447056,114.76813417547079,5,False,False,False,False,True,False,False,-0.16241066516564137,-0.45694676001115864,mp-1228646,Ba(GeAu)2
0.5134000000000001,4.539476695411165,504.15172150052837,20,False,False,False,False,True,False,False,0.10063334652730382,-0.4770644905881579,mp-27809,Ba(GeP)2
0.0,7.512464929908739,107.95886268989094,5,False,False,False,False,True,False,False,-0.4407021033159964,-0.734182580552853,mp-10698,Ba(GeRh)2
0.0,7.414405939487255,217.1290154563121,10,False,False,False,True,False,False,False,-0.19893977325022724,-0.47737294628789406,mp-30050,Ba(GeRu)2