band_gap,density,volume,nsites,crystal_Cubic,crystal_Hexagonal,crystal_Monoclinic,crystal_Orthorhombic,crystal_Tetragonal,crystal_Triclinic,crystal_Trigonal,formation_energy_pbe,formation_energy_r2scan,material_id,formula
1.8426999999999991,7.287421359034614,139.77699294262504,10,False,False,False,False,True,False,False,-2.3829640978379607,-2.576969426929337,mp-1274542,Ba2CoWO6
0.0,7.295238185384703,279.25444460810326,20,True,False,False,False,False,False,False,-2.3797317813474392,-2.5631155441172613,mp-22112,Ba2CoWO6
0.0,4.723815473596974,190.75083883187156,12,False,False,False,True,False,False,False,-1.9751583194055182,-2.1305233567649453,mp-1048539,Ba2Cr3O7
0.0,5.103959841191919,181.74895996068952,13,False,False,False,False,True,False,False,-2.0198447212345667,-2.1574774052569525,mp-1048124,Ba2Cr3O8
0.039299999999999,7.17238211385707,146.23330524165553,10,True,False,False,False,False,False,False,-2.0503805205074035,-2.3166061853345745,mp-1519532,Ba2CrBiO6
2.4321,4.874288533457235,300.2287580786797,18,False,False,False,True,False,False,False,-3.482303848922168,-3.645852779782968,mp-1214706,Ba2CrF6
0.0,6.372916817232361,270.2477271734844,20,True,False,False,False,False,False,False,-2.257899286143106,-2.6504014339816857,mp-1079901,Ba2CrMoO6
0.0,5.07837499640715,115.96871000344542,5,False,False,False,False,True,False,False,-0.04970198269961201,-0.6144678679063308,mp-1246729,Ba2CrN2
0.0,6.522015353672154,137.8321835292371,10,True,False,False,False,False,False,False,-2.290445138705506,-2.509308108434406,mp-1521461,Ba2CrSnO6
0.258499999999999,4.186476448036815,209.48442845147213,13,False,False,True,False,False,False,False,-2.5388265433262873,-2.842934526209334,mp-9372,Ba2Cu(PO4)2
0.0,4.6955489886557125,198.7950955416671,7,False,False,False,False,True,False,False,-1.2441320998831298,-1.6206305542843094,mp-1147540,Ba2Cu(SBr)2
0.0,4.71591450224777,197.93660580052386,7,False,False,False,False,True,False,False,-1.5154875900763938,-1.8711952196555726,mp-1147542,Ba2Cu(SBr)2
0.0,4.298674931557234,182.80676679053855,7,False,False,False,False,True,False,False,-1.5096994962411578,-1.8306552358859551,mp-1147578,Ba2Cu(SCl)2
0.0,4.207105997845645,186.7856113261515,7,False,False,False,False,True,False,False,-1.6058909765317557,-2.0481876947419697,mp-1147581,Ba2Cu(SCl)2
0.0,4.91597619362929,146.70940455003446,7,False,False,False,False,True,False,False,-1.4755780149550444,-1.8516156797785264,mp-1147564,Ba2Cu(SO)2
0.0,6.116264988510036,189.5941777949399,11,False,False,False,False,True,False,False,-1.4024605917581847,-1.5075398051181104,mp-1397195,Ba2Cu2HgO6
0.0,5.842166318712998,273.8549462375832,18,False,False,False,True,False,False,False,-1.394734189786053,-1.8447782310282874,mp-1097775,Ba2Cu2O5
0.0,4.865547191405451,235.1787867809721,11,False,False,False,False,True,False,False,-1.3575300525918068,-1.7976950155275182,mp-23129,Ba2Cu3(BrO2)2
0.0,4.474477441729847,222.74070087078584,11,False,False,False,False,True,False,False,-1.7065034647176964,-1.9201944463504885,mp-23085,Ba2Cu3(ClO2)2
0.0,4.670163730067026,229.2127054473742,11,False,False,False,False,True,False,False,-1.5339908215010416,-1.8061041492912593,mp-1228431,Ba2Cu3BrClO4
0.0,5.429959467055898,360.3592684897873,18,False,False,False,True,False,False,False,-0.18971647536405267,-0.6010494970133541,mp-28661,Ba2Cu3P4
0.8773999999999991,4.641152615385017,413.5091470489775,16,False,False,False,False,False,True,False,-0.7428216557494021,-0.9678419164587124,mp-1228525,Ba2CuAg3(SnS4)2
2.307299999999999,4.633837672303171,161.29466248966747,6,False,False,False,False,False,False,True,-1.9049324203350975,-2.320016691983772,mp-552934,Ba2CuBrO2
0.0,5.074224064024587,134.245382716439,8,False,False,False,False,True,False,False,-0.8174875076820958,-1.4744997608166523,mp-1021669,Ba2CuC(NO)2
2.3029,4.316923936472801,156.03718556296457,6,False,False,False,False,False,False,True,-2.2676725198952474,-2.4800280769764202,mp-551456,Ba2CuClO2
0.8501000000000001,5.474897141352942,274.2991648015784,18,False,False,False,True,False,False,False,-3.2988601549175103,-3.454280400776444,mp-3879,Ba2CuF6
0.0,5.552276417520145,135.2381978415984,9,False,False,False,False,True,False,False,-3.0344320651037138,-3.4241659666352486,mp-554352,Ba2CuF6
0.0,4.5495555572327255,251.29340552664956,18,False,False,False,True,False,False,False,-0.0035045972866335068,-0.4529540178025148,mp-1022726,Ba2CuH6
0.0,6.582036471328142,152.07335344042525,8,False,False,False,False,True,False,False,-1.6876475026392155,-1.911663457738655,mp-6562,Ba2CuHgO4
0.0,5.557912410984105,109.41368133304888,5,False,False,False,False,True,False,False,0.07288289149815508,-0.44163147038319167,mp-1245897,Ba2CuN2
0.0,6.18492908079224,103.68707388128288,6,False,False,False,True,False,False,False,-2.1870319707918093,-2.2745529651105625,mp-8790,Ba2CuO3
0.0,5.8524651736909785,228.23367844889106,14,False,False,False,False,True,False,False,-1.4890278286881145,-1.95957825241091,mp-1147762,Ba2CuO4
0.0,4.620989035508125,312.0544451574526,18,False,False,True,False,False,False,False,-1.237330048669389,-1.482389918432073,mp-1182377,Ba2CuO6
0.0,7.164414977040089,144.72702024370693,10,False,False,False,False,True,False,False,-1.5539761580689055,-2.0852704507066115,mp-1078741,Ba2CuOsO6
0.0,0.529903807424576,1393.2884977369772,4,False,False,False,True,False,False,False,1.652992945475218,1.0627188658714777,mp-1097397,Ba2CuPd
0.0,5.655250233537134,118.11586179117265,6,False,False,False,False,True,False,False,-1.8735559710841683,-2.062973641277234,mp-1147767,Ba2CuSO2
0.0,2.607444175697167,328.05083246298227,6,False,False,False,False,True,False,False,-0.7798427503342031,-0.9804639091899124,mp-1214731,Ba2CuSe2F
0.0,6.00523115889718,124.19933800585711,6,False,False,False,False,True,False,False,-1.6262282723436539,-2.0060925212065497,mp-1147589,Ba2CuSeO2
0.0,4.113254490715928,247.22794933606477,6,False,False,False,False,True,False,False,-0.6480058005239823,-0.8965674769616666,mp-1214778,Ba2CuTe2F
0.0,5.944592743716772,139.05315138371802,6,False,False,False,False,True,False,False,-1.6832450804676136,-1.974352303698036,mp-1147751,Ba2CuTeO2
0.0,6.81517908227798,136.88339784072446,10,False,False,False,False,True,False,False,-1.8553602915853045,-2.153390647104727,mp-10335,Ba2CuTeO6
0.0,6.565717574702391,284.16844284305836,20,False,False,True,False,False,False,False,-2.1655223465963145,-2.105808084108446,mp-560502,Ba2CuTeO6
0.0,7.236261871794743,141.823721275345,10,False,False,False,False,True,False,False,-2.146816733914136,-2.507721759932571,mp-505618,Ba2CuWO6
0.0,7.255948844691283,141.4389225651285,10,False,False,False,False,True,False,False,-2.247919832109626,-2.423963975556336,mp-551613,Ba2CuWO6
0.0,6.536736444395467,208.1367053323528,15,False,False,False,True,False,False,False,-1.8341509001377436,-2.0636265442405497,mp-6691,Ba2Dy(CuO2)4
0.0,7.128680054353031,235.58867662315905,19,False,False,False,True,False,False,False,-1.7818881488656428,-2.2814297976004396,mp-1214700,Ba2Dy2Co4O11
1.734999999999999,7.448969745278078,165.43726556391144,10,True,False,False,False,False,False,False,-2.713652840308555,-2.8448979827865077,mp-545659,Ba2DyBiO6
0.0,6.825266555081063,178.86287519073466,13,False,False,False,True,False,False,False,-1.8050260755775474,-2.2284758045154978,mp-1214693,Ba2DyCoCu2O7
0.0,7.531943771228667,193.31178019398334,13,False,False,False,False,True,False,False,-1.838400620254899,-2.075213863321163,mp-1214696,Ba2DyCu2HgO7
0.0,6.882202309272525,178.49613941731377,13,False,False,False,True,False,False,False,-1.930221034248733,-2.0948697029430425,mp-622105,Ba2DyCu3O7
1.6672,5.486259273954726,545.8254191750558,18,False,False,False,False,False,True,False,-1.4882331490239553,-1.88254784774965,mp-1105698,Ba2DyGaSe5
0.41179999999999906,5.758294933640973,660.3041375477908,18,False,False,False,True,False,False,False,-1.1687654544257764,-1.5452151165520251,mp-1105922,Ba2DyGaTe5