band_gap,density,volume,nsites,crystal_Cubic,crystal_Hexagonal,crystal_Monoclinic,crystal_Orthorhombic,crystal_Tetragonal,crystal_Triclinic,crystal_Trigonal,formation_energy_pbe,formation_energy_r2scan,material_id,formula
0.0,4.505800304129358,142.15237871053662,14,False,False,False,False,False,False,True,-2.4889269334190485,-2.660283503764531,mp-555263,AlV2O4
0.0,0.69131598125656,751.1154330681111,4,False,False,False,True,False,False,False,4.596777751387171,4.180440401408156,mp-1096156,AlV2W
0.0,0.576024188571413,901.4519059281693,4,False,False,False,True,False,False,False,3.9700790814340157,3.7169710044416244,mp-1262938,AlV2W
0.0,5.326066777883863,56.05918287500639,4,False,False,False,True,False,False,False,0.11293674426370447,-0.1381632778556422,mp-1228813,AlV3
0.0,5.434978790962956,109.87161605942043,8,True,False,False,False,False,False,False,-0.01229624565240195,-0.1707054722056654,mp-1387,AlV3
0.0,5.116181265349729,199.08182314605264,20,False,False,False,False,False,False,True,-1.5190795116609819,-1.8724806456530374,mp-1045776,AlV4(CuO4)3
0.39370000000000005,4.890827933583016,208.25486148422362,20,False,False,False,False,False,True,False,-1.3723470806135283,-1.9549867078939076,mp-1264182,AlV4(CuO4)3
0.0,5.119768909341504,198.94231788334864,20,True,False,False,False,False,False,False,-1.6948042251381408,-1.8345473922301754,mp-1379838,AlV4(CuO4)3
0.0,5.249446976036968,168.77892627202698,16,False,True,False,False,False,False,False,-0.2855711535865014,-0.5706374831467205,mp-569458,AlV4C3
0.0,5.4125233812171665,167.36789408480035,16,False,True,False,False,False,False,False,-0.5190944299689377,-0.9817767213131239,mp-1188352,AlV4N3
0.0,5.619759239054658,161.19598749063945,16,False,True,False,False,False,False,False,-0.7598392219681082,-1.0364537249133075,mp-1189472,AlV4N3
0.0,6.136004946438615,108.88579381244392,8,True,False,False,False,False,False,False,0.16749316693746005,-0.19101301681985666,mp-1228807,AlV6Ga
0.0,6.22961872517182,108.02708666071085,8,True,False,False,False,False,False,False,-0.09524439859703099,-0.281452694127701,mp-1228829,AlV6Ge
0.0,6.586037864263111,114.56557893979513,8,True,False,False,False,False,False,False,0.15795591833114825,-0.28521205035487096,mp-1228831,AlV6Sb
0.0,6.508718176413158,115.1484173030525,8,True,False,False,False,False,False,False,0.14417395524931664,-0.11610313312309596,mp-1228822,AlV6Sn
0.0,5.85973844441274,155.12987452006377,12,False,False,False,True,False,False,False,0.3370810460186484,-0.11362318027175718,mp-1228974,AlVCo
0.0,6.948257301087539,46.79101261358072,4,True,False,False,False,False,False,False,0.030168205234713613,-0.4633831827474413,mp-4955,AlVCo2
0.04870000000000001,0.381918985025385,790.9461753651276,4,False,False,False,True,False,False,False,3.846022338802793,3.1648936986255913,mp-1096125,AlVCr2
0.0,5.094632099567751,92.5209267737031,8,False,False,False,False,False,False,True,0.044742803482036325,-0.34401428437590725,mp-1228847,AlVCrC
3.1768,3.263644536577369,87.97900633740328,7,False,False,False,True,False,False,False,-3.1305600689412483,-3.445596108909556,mp-1248567,AlVF5
0.0,6.288797404332348,50.066783502220474,4,True,False,False,False,False,False,False,0.19050315023660136,-0.13607116895222968,mp-1228804,AlVFe2
0.0,6.696733285445902,47.01693269109623,4,False,False,False,False,True,False,False,-0.1342550939216023,-0.40368784855210404,mp-1228816,AlVFe2
0.0,6.956591127539882,45.26065315029953,4,True,False,False,False,False,False,False,-0.07799004348074538,-0.39905763283122037,mp-5778,AlVFe2
0.0,6.801107759541363,47.04938340756288,4,True,False,False,False,False,False,False,-0.13852427652085342,-0.4007279972483851,mp-1008530,AlVFeCo
0.0,3.904112301801222,180.23210530149217,16,False,False,False,True,False,False,False,-0.8187619110595569,-1.1282349569898298,mp-1247742,AlVN2
0.0,4.9001144618731125,46.296251893744966,3,True,False,False,False,False,False,False,0.8542127277973349,0.342250776270357,mp-961650,AlVNi
0.0,6.672940104255336,48.60220712603457,4,True,False,False,False,False,False,False,-0.24357067625028123,-0.4120840980232581,mp-10899,AlVNi2
0.0,6.745498327559544,48.07941553577945,4,False,False,False,False,True,False,False,0.08524145021102278,-0.38321528705276314,mp-1228840,AlVNi2
1.569,4.493987813890738,186.1127752626733,20,False,False,False,False,False,False,True,-2.4631662198990205,-2.9603486206936895,mp-1178549,AlVO3
0.0,4.333779068004552,48.24822233179429,5,True,False,False,False,False,False,False,-1.9889231300486618,-2.256818039938995,mp-1183128,AlVO3
1.679199999999999,4.18024054354719,200.08143917242444,20,False,False,False,True,False,False,False,-2.8472100993512908,-2.8369912370992934,mp-1248251,AlVO3
0.0,3.965967440785815,105.4457148889399,10,False,True,False,False,False,False,False,-2.444119635064165,-2.708037130513112,mp-1384488,AlVO3
0.0,3.742320545725786,55.87365738853553,5,True,False,False,False,False,False,False,-1.2574265410158345,-1.7649589395076526,mp-1395974,AlVO3
0.0,4.527394166218192,184.73950209166097,20,False,False,False,True,False,False,False,-2.5975364798448335,-2.8702917164856863,mp-756082,AlVO3
0.0,14.072812583990622,54.087478144064995,4,True,False,False,False,False,False,False,-0.45366889484423667,-0.6126948423772932,mp-862700,AlVOs2
0.0,8.983501643288964,50.4634908583488,3,True,False,False,False,False,False,False,0.08663555181576736,-0.14503971207543645,mp-961668,AlVPt
0.0,1.041840470375667,717.7703947924094,4,False,False,False,True,False,False,False,4.255879825225686,3.859378116427181,mp-1093903,AlVRe2
0.20599999999999902,1.042429731624605,717.3646559052161,4,False,False,False,False,True,False,False,4.267845671480207,3.864476439432232,mp-1258362,AlVRe2
0.0,8.750246140038335,53.14771827709595,4,True,False,False,False,False,False,False,-0.46655771737545715,-0.7770019990472901,mp-866001,AlVRu2
0.0,12.554269370297833,107.58015772620878,8,False,True,False,False,False,False,False,0.24858889747779384,-0.0012063743357678307,mp-1079892,AlW2C
0.0,12.293106606732065,84.6329072451551,8,False,False,False,True,False,False,False,0.3670998408465557,0.11133834466566689,mp-1228839,AlW3C4
1.924799999999999,7.545489320711534,155.4790398616798,12,False,False,False,False,False,True,False,-2.0202290401747742,-2.2108549020925965,mp-1041957,AlW3O8
0.0,9.445064092661278,39.176191274417675,3,False,False,False,True,False,False,False,1.1657180849993651,0.6181503779019883,mp-1228818,AlWC
0.0,9.210403970809853,42.33971444643987,4,False,False,False,True,False,False,False,0.641793846024549,0.4048870858236535,mp-1228830,AlWC2
0.5218,5.145118705444246,98.6984720044988,7,False,False,False,True,False,False,False,-2.3084376368761745,-2.7912900718470333,mp-1262038,AlWF5
1.5971000000000002,4.977853285650076,337.3770936711151,20,False,False,False,False,False,True,False,-0.10172899958663037,-0.6207169751944109,mp-1246403,AlWN3
0.8598999999999991,6.8419398364679544,251.26224282870476,20,False,False,False,True,False,False,False,-1.8941771422778053,-2.2895215460445364,mp-1046804,AlWO3
0.0,7.158873612223846,120.06924844116422,10,False,True,False,False,False,False,False,-1.6576224789077072,-1.903165797846727,mp-1400236,AlWO3
0.0,7.004185538557308,61.36049434821571,5,True,False,False,False,False,False,False,-1.0907766554495064,-1.4429857099606578,mp-1417649,AlWO3
2.980299999999999,7.674028352592433,59.466540248121035,6,False,False,False,True,False,False,False,-2.3863387009586368,-2.697985760877973,mp-1182867,AlWO4
2.2527,7.336639690563866,124.40243357775876,12,False,False,True,False,False,False,False,-2.467590099109519,-2.6574256115966093,mp-19413,AlWO4
0.0,0.9882242500721771,817.1823995898321,4,False,False,False,True,False,False,False,1.1079217576749114,0.7417206358141379,mp-1095717,AlZnAu2
0.0495,0.566094696410194,616.7516604159078,4,False,False,False,True,False,False,False,2.3589175812123933,2.221410792740713,mp-1096171,AlZnCo2
0.0,3.547272315289482,255.26114407459846,14,False,False,False,True,False,False,False,-0.6998452895879074,-1.1672129239307283,mp-1228837,AlZnCrS4
0.0,0.5420368862793981,672.3884278126009,4,False,False,False,True,False,False,False,1.6616705379052412,1.5018354061010228,mp-1095936,AlZnCu2
0.0,7.004030895878059,52.03565421111011,4,True,False,False,False,False,False,False,0.17594969588092685,-0.17570555558827422,mp-1183151,AlZnCu2
0.0,5.325970543751921,186.7161291888043,9,True,False,False,False,False,False,False,-0.1732881836430777,-0.5282801235434629,mp-1182859,AlZnCu3Se4
2.7802000000000002,3.197086704335698,150.8174939698332,7,False,False,False,False,True,False,False,-0.7678179851627495,-1.0308759295004755,mp-1228824,AlZnGaS4
0.0,14.676179574337322,53.95040107326919,4,True,False,False,False,False,False,False,-0.30576291102870784,-0.6818930157887066,mp-862705,AlZnIr2
0.012199999999999002,0.616284750101697,565.2313577046865,4,False,False,False,True,False,False,False,2.040066324006622,1.8192083968586445,mp-1093891,AlZnNi2
0.0763,0.692338417155648,732.0801808845921,4,False,False,False,True,False,False,False,1.6261714396185867,1.2339997188184435,mp-1097561,AlZnPd2
0.0,9.349776267022486,52.96119291239688,4,True,False,False,False,False,False,False,-0.7594255482870115,-0.9303203583660553,mp-866033,AlZnRh2
8.5132,1.720053306789052,38.56579000820011,1,True,False,False,False,False,False,False,0.31895693693196175,-0.07160789610587018,mp-23155,Ar
8.489799999999999,1.455308263060024,91.16311137140956,2,False,True,False,False,False,False,False,0.5942843048587417,-0.011431390160305477,mp-568145,Ar
0.0,6.294908691696857,39.5272591948089,2,True,False,False,False,False,False,False,0.2623475063091638,0.14531621062631128,mp-10,As
0.0,6.407068275258615,19.417655374861265,1,True,False,False,False,False,False,False,0.7569326794212722,0.5116249840518321,mp-1096826,As
0.0,5.50131420167325,45.22928128494773,2,False,False,False,False,False,False,True,0.38809030494883623,-0.07922484269081372,mp-11,As
0.0,0.9619899658292641,258.65185324450476,2,False,False,False,False,True,False,False,1.4173870672909405,1.1075851821865772,mp-1182332,As
0.0,5.529070308698897,67.50334330336351,3,False,False,False,False,True,False,False,0.7644856632243678,0.41920086504441545,mp-1238842,As
0.0,5.049641043483309,98.54977227954305,4,False,False,False,True,False,False,False,0.3733780695221495,-0.03270625220398289,mp-158,As
1.6272,3.5898205459455133,396.53621659087327,20,False,False,False,False,False,True,False,-1.2732934219657357,-1.698067830271629,mp-28159,As(BrF2)3
4.4542,1.315845718456423,386.0923321075007,14,False,False,True,False,False,False,False,1.0624207873648606,0.5668734994823869,mp-608317,As(CN)3
4.728,1.741047794844343,291.80011234437745,14,False,False,True,False,False,False,False,0.8723909067535609,0.5142341677385023,mp-623837,As(CN)3
1.3305,4.034902013756525,468.8516723779201,20,False,False,False,False,False,True,False,-1.4630807844427693,-1.7456815945354782,mp-27445,As(IF2)3
0.0,2.127765913156375,691.0115852581533,18,False,False,True,False,False,False,False,-1.4343797362084794,-1.8204438738196234,mp-1205437,As(IF3)2
0.5218,4.146365554856233,354.6023323935869,18,False,False,True,False,False,False,False,-1.3277793850434945,-1.9984004751649087,mp-558244,As(IF3)2
0.6425000000000001,2.533211302390231,580.413838877604,18,False,False,True,False,False,False,False,-1.2928946627907192,-1.598705156787167,mp-651217,As(IF3)2
1.2946,1.056698476375465,362.89614704438424,10,False,False,False,False,False,True,False,0.08578689804940479,-0.10181532507733052,mp-1214773,As(NF2)3
0.8155000000000001,10.710256626582213,212.13472096243024,12,False,False,True,False,False,False,False,-0.1050107487736221,-0.5787630695178427,mp-15649,As2Ir
3.4494,3.754348899841178,350.01901256938044,20,False,False,True,False,False,False,False,-1.3227789045930398,-1.6208631627547043,mp-1105118,As2O3
1.4491,2.4117790071435943,544.8648034795293,20,False,False,True,False,False,False,False,-0.5017863274021055,-0.45195058210312705,mp-1105631,As2O3
3.0503,2.529300946605529,519.5480974800329,20,False,False,False,True,False,False,False,-1.1247046814274368,-1.607598036149802,mp-1106211,As2O3
3.6287000000000003,3.497015936650319,375.77566661651457,20,False,False,False,False,True,False,False,-1.3766807818930902,-1.5950168097100794,mp-1189365,As2O3
3.6306000000000003,3.904404431828516,336.5669509159764,20,False,False,True,False,False,False,False,-1.338262891845624,-1.607932806803649,mp-1581,As2O3
4.0339,4.117486464369091,319.14943889553336,20,False,False,True,False,False,False,False,-1.2765515614146488,-1.5706491879031423,mp-1582,As2O3
4.0234,3.794773824614216,346.29033389017377,20,True,False,False,False,False,False,False,-1.2951984270331411,-1.6382263581328054,mp-2184,As2O3
3.7495000000000003,3.938728563792634,333.6339312242419,20,False,False,True,False,False,False,False,-1.2137856859291452,-1.6104697003694257,mp-2766031,As2O3
0.6646999999999991,11.02793169102378,102.41355313495791,6,False,False,False,True,False,False,False,-0.06921574058547851,-0.35800866877687293,mp-2455,As2Os
2.1358,6.573971107735893,114.43463048256831,9,False,False,False,False,False,False,True,-1.3562342719402527,-1.8049588277960558,mp-20015,As2PbO6
0.0,7.771846403526801,219.0136206185571,12,True,False,False,False,False,False,False,-0.0910561641375866,-0.326780931226548,mp-20465,As2Pd
0.0,6.146695907882214,95.16345629442812,9,False,False,False,False,False,False,True,-0.9592170828668735,-1.3702054638094412,mp-6915,As2PdO6
0.0785,10.562598941863977,216.90309132645186,12,True,False,False,False,False,False,False,-0.21507304739804106,-0.5720227893060463,mp-2513,As2Pt
0.2625,8.009504852964664,209.600517428747,12,False,False,True,False,False,False,False,-0.4129086369733544,-0.6137949183357576,mp-15954,As2Rh
0.44920000000000004,8.23119467448224,101.2371077110571,6,False,False,False,True,False,False,False,0.006161010759587776,-0.44113924248080444,mp-766,As2Ru
0.0,4.94130512456899,122.2614936822927,6,False,False,False,False,True,False,False,0.2655974366703908,0.10205648865381359,mp-1228819,As2S
1.9873,3.104445879796971,526.4141283759965,20,False,False,False,False,False,True,False,0.2646986745546738,-0.14391882693678001,mp-1189572,As2S3
2.0989,3.195248938424692,511.45441353607777,20,False,False,True,False,False,False,False,0.1986443708227031,-0.14815128101976655,mp-641,As2S3
4.417199999999999,3.5659462512739912,258.82131281310154,18,False,False,False,True,False,False,False,-1.1083725743140647,-1.6838434434086025,mp-27230,As2SO6
0.0,5.7470409429292495,132.21992184709947,6,False,False,False,False,True,False,False,0.3217428028178332,0.008136256459833638,mp-1228838,As2Se
0.6002999999999991,5.039011232617804,254.87896411255014,10,False,False,True,False,False,False,False,0.13544949814477236,-0.07148579436618757,mp-1078443,As2Se3
1.4466,4.573186524611719,561.681862836406,20,False,False,True,False,False,False,False,0.1576042051793411,-0.157808583131651,mp-909,As2Se3
1.2161,3.653380137617407,532.5775081498964,20,False,False,True,False,False,False,False,0.17840340097067767,-0.060985133912690496,mp-1229167,As2SeS2
0.0,10.834820174343976,102.28023733705396,6,False,False,True,False,False,False,False,0.3584186586246435,-0.1084636558638016,mp-1077179,As2W
3.066599999999999,3.492653522931885,185.32489212062714,18,False,False,False,False,False,True,False,-1.3987560367516,-1.4916932354213455,mp-27404,As3(HO2)5
0.026799999999999,8.96076155988533,309.087375814539,16,True,False,False,False,False,False,False,-0.3663208416219501,-0.46521585677333,mp-540912,As3Ir
0.0,9.462475908721666,150.50529157529337,8,False,False,False,True,False,False,False,-0.21334763214313,-0.3635962625749863,mp-1228991,As3Pd4Pb
0.0,7.0863476131001,307.1310434213981,16,True,False,False,False,False,False,False,-0.05619601307896269,-0.4551438875937227,mp-8182,As3Rh
0.0,10.051709605601104,67.5013763650909,4,True,False,False,False,False,False,False,1.163166689949786,0.6042277642907415,mp-1183184,As3W
0.0,9.244492835377317,146.79101282955045,8,False,True,False,False,False,False,False,0.8893708325318793,0.5497812821237643,mp-985288,As3W
0.0,11.240046269237876,175.04869849094098,10,False,False,True,False,False,False,False,0.1819068720214984,-0.06600784150804839,mp-11696,As3W2
0.0,3.43718817626826,236.52738570341697,12,False,True,False,False,False,False,False,-0.5441882688663569,-0.8723928628660023,mp-1103461,As4BrNO6
0.0,5.696588680355838,97.86096836388218,7,True,False,False,False,False,False,False,1.3474119921769447,0.8940909111912273,mp-568505,As4C3
0.0,2.828486069413547,290.96130547453265,15,False,True,False,False,False,False,False,-0.08663825154525315,-0.24677895539046457,mp-1214628,As4HN2(ClO3)2
0.0,3.562602245137976,250.10797972269265,12,False,True,False,False,False,False,False,-0.4968566967564493,-0.8789055910049532,mp-1095503,As4INO6
0.0,2.828611903022728,299.74911134412116,15,False,True,False,False,False,False,False,0.2514350041340304,-0.18991579737221695,mp-1105031,As4N2Cl2O7
0.0,2.937446126133273,288.6432185854489,15,False,False,False,True,False,False,False,0.17822505449097675,-0.13105237673541603,mp-1182363,As4N2Cl2O7
0.0,9.64312657201655,234.14191746704287,15,False,False,False,False,False,False,True,-0.1953368804863776,-0.5089845292207553,mp-1228867,As4PRh10
0.0,9.149626970531777,377.12521230050123,20,False,False,True,False,False,False,False,0.14357583826006712,-0.3083066082151679,mp-675510,As4Pd5Pb
0.0,9.149044932225062,377.1492040200319,20,False,False,True,False,False,False,False,-0.4092316970748876,-0.2714865510662951,mp-936855,As4Pd5Pb
1.996999999999999,3.112527531590688,490.833827510581,18,False,False,True,False,False,False,False,0.2471776580338041,-0.14818358593973868,mp-502,As4S5
0.0,10.228042464816548,285.6279636294729,19,False,False,False,False,False,False,True,-0.2721437103199946,-0.4677463309429972,mp-1228882,As7Rh12
0.0,14.952546017377347,147.88415168403492,8,False,True,False,False,False,False,False,0.17616832047153252,0.11801449983522794,mp-984353,AsAu3
0.357699999999999,6.173253171712357,344.1840454762892,20,False,False,True,False,False,False,False,-0.6985581465712529,-1.0682230957263121,mp-755240,AsAuO3
1.8671000000000002,6.067715375316714,183.84232180975374,12,False,False,True,False,False,False,False,-0.6589218661422263,-1.1339073454241615,mp-1095378,AsAuO4
3.1271,3.72693540099669,560.7410145346511,16,False,False,False,True,False,False,False,-0.5809306640691538,-0.8853952514380008,mp-23317,AsBr3
3.9873000000000003,2.490146680099305,483.54343255744817,16,False,False,False,True,False,False,False,-0.31275467916955824,-0.7129509866125906,mp-23280,AsCl3
2.5284,2.606670690721858,502.69663632597803,20,False,False,True,False,False,False,False,-0.614229528801702,-1.1588224482243528,mp-29863,AsCl3O
1.4376,2.343628255637765,357.36529491454684,12,False,False,False,True,False,False,False,0.01103651220427404,-0.5128337411794893,mp-30106,AsCl5
3.3906,3.015052217755123,288.9913869005366,20,False,False,True,False,False,False,False,-1.0507257915942911,-1.5667915086923927,mp-27926,AsClF8
5.359999999999999,3.574762367180028,245.1105761805757,16,False,False,False,True,False,False,False,-1.8180501788392152,-2.237973129572147,mp-28027,AsF3
4.6002,3.304474604228899,170.7673570583304,12,False,True,False,False,False,False,False,-1.841093139581427,-2.1296227387920825,mp-8723,AsF5
0.0,2.476753261034703,209.03400755951424,16,True,False,False,False,False,False,False,0.7866269519654239,0.718169064782243,mp-27721,AsH3
2.7713,2.599536988955464,132.19637074726703,12,False,False,False,False,False,True,False,-1.2071356155111583,-1.4720210265975633,mp-1228846,AsH4NF6
2.8242000000000003,2.7090221454716863,126.85365313001367,12,False,False,False,False,False,True,False,-1.3029473282557618,-1.4616535328283042,mp-1228862,AsH4NF6
3.1155,5.66623497800498,203.4572089878553,14,False,False,True,False,False,False,False,-1.020626250768184,-1.637540746665156,mp-1228828,AsHPbO4
3.0015,5.774441382748803,199.64465437961917,14,False,False,True,False,False,False,False,-1.3679077709719925,-1.7013908525206942,mp-504751,AsHPbO4
2.2375,4.447894935673874,340.20575807555747,8,False,False,False,False,False,False,True,-0.1601624183573252,-0.5122804515778298,mp-23218,AsI3