band_gap,density,volume,nsites,crystal_Cubic,crystal_Hexagonal,crystal_Monoclinic,crystal_Orthorhombic,crystal_Tetragonal,crystal_Triclinic,crystal_Trigonal,formation_energy_pbe,formation_energy_r2scan,material_id,formula
0.0,5.187278229481542,136.87396346453383,4,True,False,False,False,False,False,False,0.061341613159907715,-0.042090927876594735,mp-1183268,AcEuMg2
0.0,7.503161499665293,112.82083245672415,4,True,False,False,False,False,False,False,0.07242308831562037,-0.20741671138300571,mp-1183124,AcEuZn2
7.4101,8.787879077937266,53.663134879951954,4,True,False,False,False,False,False,False,-3.9672618837326357,-4.469874673736771,mp-977360,AcF3
6.0693,8.793764902943147,53.6272171786424,4,False,False,False,False,True,False,False,-4.4091099545591845,-4.4934164872335725,mp-985278,AcF3
0.9887999999999991,8.889999465919495,61.79731063258672,5,True,False,False,False,False,False,False,-2.4438443867201554,-2.7911021321577927,mp-861502,AcFeO3
0.0,7.711083092964986,187.85316029096617,8,False,True,False,False,False,False,False,-0.25694744773773553,-0.6286188579952707,mp-867815,AcGa3
2.895900000000001,9.31449500321555,61.455078293307366,5,True,False,False,False,False,False,False,-2.6459791862334034,-3.086795474243831,mp-1183053,AcGaO3
0.49099999999999905,7.18122937756361,127.62295354587478,4,True,False,False,False,False,False,False,-0.9571838785067142,-1.0827565148327027,mp-861884,AcGaTe2
0.0,7.858576635263988,188.02566311980837,8,False,True,False,False,False,False,False,-0.3423988288376395,-0.4864973474503573,mp-862665,AcGe3
0.0,7.345135733071883,51.77437550942748,3,True,False,False,False,False,False,False,-0.30604236349079944,-0.683865048314846,mp-24147,AcH2
0.640699999999999,7.784733821859042,49.065716066750646,4,True,False,False,False,False,False,False,-0.32725432995252113,-0.6447337157238996,mp-861605,AcH3
0.0,12.291320218467966,223.93118684814755,8,False,True,False,False,False,False,False,-0.13966521619811556,-0.5044718291544047,mp-862289,AcHg3
0.0,13.529897145472034,100.82643275831269,4,True,False,False,False,False,False,False,-0.3056665523254527,-0.612055266040746,mp-861966,AcHgAu2
0.0,12.771599111355195,82.35359536053441,4,True,False,False,False,False,False,False,-0.12369331198677568,-0.3063658410941742,mp-1183060,AcHgRh2
0.0,8.7512973367685,129.5578730390253,4,True,False,False,False,False,False,False,-0.6533564816758556,-0.9572771186812844,mp-1183055,AcHgTe2
2.5892,4.3344198328891235,465.6364161794002,8,False,True,False,False,False,False,False,-1.4570423321301986,-1.8207382397405651,mp-861867,AcI3
0.0,8.115717260334973,233.8478932484816,8,False,True,False,False,False,False,False,-0.35786161832895624,-0.5250731488130026,mp-867297,AcIn3
0.0,9.178970004926356,100.86544159724063,4,True,False,False,False,False,False,False,0.25267184729671643,-0.3599523463868564,mp-1183121,AcInAg2
0.0,12.104970677214213,100.92907620537702,4,True,False,False,False,False,False,False,-0.34161923623822693,-0.6859867493498998,mp-862860,AcInAu2
0.0,11.066496074405764,111.48761063215909,4,True,False,False,False,False,False,False,-0.3893078002053903,-0.5054570954311871,mp-867321,AcInHg2
0.3799,7.448293892336029,133.1005095654828,4,True,False,False,False,False,False,False,-0.7665390730799234,-1.1484245777754545,mp-861460,AcInTe2
0.0,7.173638101326436,84.69904935757582,2,False,True,False,False,False,False,False,0.1858308532158968,-0.003234734418750544,mp-1183049,AcLa
0.0,6.638508627349762,322.03505534743505,8,False,True,False,False,False,False,False,0.4506873124363688,0.005772526606702862,mp-1183051,AcLa3
0.0,6.793603205833718,157.34157769158733,4,False,False,False,False,True,False,False,0.49936577872611365,0.04349328842260455,mp-985059,AcLa3
0.0,7.647225665938363,128.27214528504615,4,True,False,False,False,False,False,False,-0.09801404462775658,-0.30336213700172604,mp-1183118,AcLaCd2
0.0,5.177322328761776,132.9488658299706,4,True,False,False,False,False,False,False,0.37667719001164723,-0.05393304061202732,mp-1183101,AcLaMg2
0.0,5.928424529603138,70.38999451678067,2,True,False,False,False,False,False,False,0.3020232152904787,-0.10090805794380338,mp-866286,AcMg
0.0,4.172201049624254,238.73277832773198,8,False,True,False,False,False,False,False,0.4089796333741735,0.011115835755000043,mp-1183237,AcMg3
0.0,4.364696452825614,114.10199530300227,4,True,False,False,False,False,False,False,0.552971068023091,-0.06852357881805628,mp-984785,AcMg3
0.0,3.533259903838494,163.79756766775884,6,False,True,False,False,False,False,False,0.2273654030162364,-0.01925738145294731,mp-1525815,AcMg5
0.0,3.533703416880433,163.7770095311729,6,False,True,False,False,False,False,False,0.15268728076304455,-0.015483366573951978,mp-864996,AcMg5
0.0,7.12402075752759,110.98051382397257,4,True,False,False,False,False,False,False,-0.0718429288188285,-0.2593189189278873,mp-865979,AcMgCd2
0.0,9.905053371936065,109.38626902711195,4,True,False,False,False,False,False,False,-0.24435370836982176,-0.4045213686124642,mp-866225,AcMgHg2
0.0,7.671748358584634,64.78375373225691,5,True,False,False,False,False,False,False,-2.7134105829121156,-2.994032058599993,mp-1183142,AcMgO3
0.0,9.226817152387888,118.79228345491879,4,True,False,False,False,False,False,False,0.10861527768082356,-0.25872277422745515,mp-861735,AcMgTl2
0.0,6.5624667485201815,96.69080150226694,4,True,False,False,False,False,False,False,0.10567119552450482,-0.26608906489728423,mp-1183182,AcMgZn2
0.0,8.802373253340264,62.241398829787876,5,True,False,False,False,False,False,False,-2.5495525357308026,-3.0325087938363833,mp-864911,AcMnO3
0.0517,8.01361833485228,99.88023485516378,4,False,True,False,False,False,False,False,-1.020612854343312,-1.3120736367060073,mp-866056,AcN
0.0,9.5378414615304,88.04574830525746,4,True,False,False,False,False,False,False,1.1031739784485977,0.5381997837341385,mp-1183255,AcNb3
0.0,7.222751365085316,151.6736131257941,4,False,False,False,False,True,False,False,0.2977027300143046,0.04026158098323725,mp-1183235,AcNd3
0.0,7.140601318909621,306.837126825906,8,False,True,False,False,False,False,False,0.7450683387384388,0.029139517267528527,mp-1183259,AcNd3
0.0,5.43849258512513,128.19372965534754,4,True,False,False,False,False,False,False,0.3382664171647519,-0.035209401736853135,mp-1183179,AcNdMg2
0.0,9.494942767086057,58.35821779959113,5,True,False,False,False,False,False,False,-2.2840502089624404,-2.4645379404846937,mp-1183139,AcNiO3
0.0,8.627683228517736,93.53843579388911,4,False,True,False,False,False,False,False,-2.7860936984591667,-2.9353432573404126,mp-1183172,AcO
4.256600000000001,8.272058043900467,52.593633321731225,3,True,False,False,False,False,False,False,-3.787044838546859,-4.137459579704688,mp-36526,AcOF
0.0,13.15963505590593,104.49738325972,4,True,False,False,False,False,False,False,-0.4162456596738797,-0.6726745010024786,mp-867422,AcPbAu2
0.0,9.497547055496376,66.68667373916479,5,True,False,False,False,False,False,False,-1.8298553313861843,-2.2274707267845146,mp-1183145,AcPdO3
0.0,7.395099213769491,148.64937309324716,4,False,False,False,False,True,False,False,0.4130809461860327,0.056173330194256785,mp-1183241,AcPm3
0.0,7.316926266082997,300.4750415990404,8,False,True,False,False,False,False,False,0.3274088218514681,-0.007734004946214172,mp-1183264,AcPm3
0.0,6.963544360654057,154.93408027061994,4,False,False,False,False,True,False,False,0.21540774916473826,0.06513046727460846,mp-1183239,AcPr3
0.0,6.9060635543457884,312.4472667972143,8,False,True,False,False,False,False,False,0.11848849442211828,0.06408964194540608,mp-1183266,AcPr3
0.0,5.302762223233009,130.43085860480866,4,True,False,False,False,False,False,False,0.17576839864828084,-0.08775485239896091,mp-1183181,AcPrMg2
0.0,12.201403840756067,87.10172062363914,4,True,False,False,False,False,False,False,0.08239564977352382,-0.35338658358522307,mp-1183220,AcRh2Pb
0.0,12.074736666490757,102.1364692422039,4,True,False,False,False,False,False,False,-0.3871694952554674,-0.720462775503827,mp-862894,AcSbAu2
0.0,5.124438034844145,234.52152547625482,8,False,True,False,False,False,False,False,0.23643860381820078,0.11926451709294703,mp-1183247,AcSc3
3.3847,7.569207408829243,70.19180130743561,5,True,False,False,False,False,False,False,-3.503083291622322,-3.819044631502943,mp-1183152,AcScO3
0.0,7.495921073984983,102.76133574668306,4,False,False,False,False,True,False,False,-0.8442462717125503,-1.1591028752169403,mp-1183234,AcSe3
0.0,7.396126182956262,208.29576001271505,8,False,True,False,False,False,False,False,-1.039494379102046,-1.174462761841691,mp-867800,AcSe3
0.0,6.003622777251709,172.1805640226397,8,False,True,False,False,False,False,False,0.0015902477668281283,-0.3608350939279432,mp-866222,AcSi3
0.0,8.042345508493089,62.5790478372491,5,True,False,False,False,False,False,False,-2.5595150757331,-2.8495842837908185,mp-1183150,AcSiO3
0.0,7.684886951888176,146.51852881238224,4,False,False,False,False,True,False,False,0.17601230845040253,0.08732585271105829,mp-1183230,AcSm3
0.0,7.597857267990373,296.3936516743617,8,False,True,False,False,False,False,False,0.39308236217724146,0.051018513745675086,mp-1183260,AcSm3
0.0,12.169529519264383,100.92471726596844,4,True,False,False,False,False,False,False,-0.31603822791976893,-0.667426494119425,mp-865957,AcSnAu2
0.0,10.994028607109955,112.81033257006422,4,True,False,False,False,False,False,False,-0.01992643914870451,-0.4220160122539731,mp-1183197,AcSnHg2
0.0,10.103331921160555,91.80081411626928,4,True,False,False,False,False,False,False,-0.1942241790697646,-0.6215832004917906,mp-1183243,AcSnPd2
0.0,8.302057251879335,140.7660281911316,4,False,False,False,False,True,False,False,0.16422030293143536,0.07834996599425087,mp-1183217,AcTb3
0.0,7.79355066595012,129.9275216412843,4,False,False,False,False,True,False,False,-0.8590472103622704,-0.9870208001524594,mp-865558,AcTe3
0.0,10.154090026482757,75.06833499587438,2,False,True,False,False,False,False,False,0.545131153831297,0.17222249874290477,mp-1183157,AcTh
0.0,10.988500269030464,278.9947893330983,8,False,True,False,False,False,False,False,0.5099446482618363,0.13359384692355367,mp-1183258,AcTh3
0.0,8.403352518165326,63.7995700747627,5,True,False,False,False,False,False,False,-3.2303785852207634,-3.6181781652380822,mp-865927,AcTiO3
0.0,10.48098234080498,102.525460655813,4,True,False,False,False,False,False,False,0.6413016967232051,-0.18970562611003977,mp-865958,AcTlAg2
0.0,13.191265708046576,103.89224339330681,4,True,False,False,False,False,False,False,-0.26288528777102405,-0.6730717243532591,mp-865952,AcTlAu2
0.0,12.094410548375041,114.30932326446977,4,True,False,False,False,False,False,False,0.01686056790209081,-0.4075032463846555,mp-984551,AcTlHg2
0.0,12.444575359161687,85.02387567494442,4,True,False,False,False,False,False,False,0.09758646764898432,-0.33051787316278486,mp-1183199,AcTlRh2
0.6253000000000001,8.430613335203375,135.23314933262142,4,True,False,False,False,False,False,False,-0.8536939570957993,-1.2933818300357274,mp-865028,AcTlTe2
0.0,8.6637462299545,62.471313314162764,5,True,False,False,False,False,False,False,-2.888359482196055,-3.13003961671026,mp-1183168,AcVO3
0.0,5.699300425239347,143.84875659657985,4,True,False,False,False,False,False,False,0.5089145136989821,0.03206833539544329,mp-1183183,AcY3
0.0,5.6797071452633805,144.34499150625155,4,False,False,False,False,True,False,False,0.2826309034443602,0.11731992612992707,mp-1183226,AcY3
0.0,9.32305962539298,132.89214680093477,4,True,False,False,False,False,False,False,0.3617955108639977,0.12387524636466875,mp-1183236,AcYb3
0.0,9.54547391544021,107.12100599178602,4,True,False,False,False,False,False,False,-0.005363487799367531,-0.2503296342945636,mp-1183196,AcYbAg2
0.0,12.741248470333032,103.47678381359843,4,True,False,False,False,False,False,False,-0.4916321072170488,-0.8002067972463296,mp-1183185,AcYbAu2
0.0,8.803171338481686,117.86749596683062,4,True,False,False,False,False,False,False,0.3599048968760273,-0.2286691651124904,mp-979962,AcYbCd2
0.0,8.714843579747658,102.79445301411901,4,True,False,False,False,False,False,False,-0.48068602201376426,-0.5157686442528602,mp-979981,AcYbGa2
0.0,11.574482273120262,114.94744037329507,4,True,False,False,False,False,False,False,-0.08232166581882201,-0.517027921986697,mp-866203,AcYbHg2
0.0,6.124934247435266,121.63409795656975,4,True,False,False,False,False,False,False,0.01583149369655623,0.002188776448881956,mp-979950,AcYbMg2
0.0,11.441373382144787,87.92993816709838,4,True,False,False,False,False,False,False,-0.4458008904934081,-0.6161334949090692,mp-980005,AcYbRh2
0.0,11.012767461203602,121.95435537482372,4,True,False,False,False,False,False,False,0.0849188764201099,-0.3783128429695596,mp-1183192,AcYbTl2
0.0,8.579683761627889,102.74393232995885,4,True,False,False,False,False,False,False,0.06756355223932138,-0.21173455956274734,mp-865953,AcYbZn2
0.0,8.251426972419496,94.63013214056161,4,True,False,False,False,False,False,False,-0.09282292356439595,-0.1909169294090736,mp-1183174,AcZn2Cd
0.0,7.98102616993869,98.33704658652768,4,True,False,False,False,False,False,False,-0.22350469914941729,-0.43848366973657354,mp-1183190,AcZn2In
0.0,7.642317287809214,183.91933783251287,8,False,True,False,False,False,False,False,0.13158761046520034,-0.28491122693603704,mp-864809,AcZn3
0.0,11.940258234504109,95.45002384532609,4,True,False,False,False,False,False,False,-0.3539172353825686,-0.507436005230356,mp-861734,AcZnAu2
0.0,10.302466709886353,34.77213082803506,2,False,True,False,False,False,False,False,0.3401374634372972,0.058219103361256276,mp-10597,Ag
0.0,10.362566636379526,17.28523120082949,1,True,False,False,False,False,False,False,0.30896249098557105,0.019013140805229645,mp-124,Ag
0.0,9.86674239833866,18.153849863758662,1,True,False,False,False,False,False,False,0.2365971111924604,0.007942732728271378,mp-2646971,Ag
0.0,10.315417515494216,69.45695019121693,4,False,True,False,False,False,False,False,0.6215916133987989,0.05961183335098323,mp-8566,Ag
0.0,9.922633184978451,54.15478637716398,3,False,False,False,False,False,False,True,0.40546952834770567,-0.0055474519343549356,mp-989737,Ag
0.0,0.26446647333036705,5063.201632594296,10,False,False,False,True,False,False,False,1.095450287178442,1.0891675417419393,mp-1215094,Ag(AsSe2)3
0.0,8.073054023127192,232.81179416614023,10,False,False,True,False,False,False,False,0.26732353653832713,-0.05037447564239836,mp-35835,Ag(AuS)2
0.0,6.530571606068036,419.63351787681177,16,False,False,True,False,False,False,False,-0.15859029499520522,-0.31269751265850376,mp-558796,Ag(Bi2S3)3
0.0,0.38603699595195,5198.6641810027895,10,False,False,False,True,False,False,False,1.6210463123930237,1.2188005914701567,mp-1207284,Ag(BiSe2)3
0.0,0.37177414300440303,6701.61836554716,10,False,False,False,True,False,False,False,1.286576724141349,1.1179007999171113,mp-1206226,Ag(BiTe2)3
0.0,5.600475155494086,278.7180563196279,15,False,False,False,False,False,False,True,-0.4281276181644809,-0.6970184960409028,mp-35109,Ag(Mo3S4)2
0.0,6.916088833517201,315.77405071020365,15,False,False,False,False,False,False,True,-0.14817176009737845,-0.522614411885143,mp-1103642,Ag(Mo3Se4)2
0.0,7.542351078551028,278.53495480367815,14,False,True,False,False,False,False,False,0.030834207384446144,-0.3822848863055169,mp-1105028,Ag(MoSe)3
0.0,7.250121480867646,267.6627773578491,18,False,False,False,True,False,False,False,-1.1131215490213295,-1.3089638902937921,mp-1229205,Ag(OsO3)2
0.0,8.865831141627725,406.75824771212467,15,False,False,True,False,False,False,False,0.18654090470720275,-0.07218213368874896,mp-1229158,Ag(Te5Au2)2
0.0,7.024271182536435,342.5694588518862,13,False,False,True,False,False,False,False,-0.03608364244337446,-0.2576021877217276,mp-29607,Ag(TeMo)6
0.0,11.843214432671001,419.48921655936215,20,False,False,False,False,False,False,True,0.28060853419728227,0.04407749657475379,mp-770433,Ag11Hg9
0.394499999999999,0.31850747966422205,7332.202128929559,14,True,False,False,False,False,False,False,2.1278547587207375,1.5746263222129198,mp-1215080,Ag12SBr
0.40240000000000004,0.33123253389683005,7286.142181339207,14,True,False,False,False,False,False,False,1.9428455586084306,1.5759641653347034,mp-1215073,Ag12SI
0.0,3.913921752639735,547.5676371330463,20,False,False,False,True,False,False,False,-0.04166159631692179,-0.09986473221720031,mp-1215023,Ag2AsO2
0.0,3.910688869017461,183.82653320786977,8,False,False,False,False,True,False,False,0.9745146286011854,0.5840259282994147,mp-1080805,Ag2AsS4N
0.0,6.8282670020857275,74.52469587947061,4,True,False,False,False,False,False,False,1.5872621026768958,0.9549645060514561,mp-631581,Ag2BBr
0.188999999999999,7.108014722541554,188.96003028045283,8,False,False,False,True,False,False,False,0.19643533165211596,-0.2629595887775569,mp-1229130,Ag2Bi2SeS3
0.0,7.329475559716415,217.40272705759577,8,False,False,False,True,False,False,False,-0.25519591631237204,-0.32950884838752176,mp-1229134,Ag2BiSb(TeSe)2
0.0,7.179529875820542,199.4435233159117,8,False,False,False,False,True,False,False,-0.0021600494195237324,-0.2430747227743747,mp-1229120,Ag2BiSbSe4
0.0,7.423833901652597,236.39877160944062,8,False,False,False,False,True,False,False,0.21215182112799438,-0.2720341017291552,mp-1229125,Ag2BiSbTe4
0.0,5.725566588271111,264.1799197898534,10,False,False,False,False,False,False,True,-0.39539481750948213,-0.6119928597332928,mp-862982,Ag2Br3
1.0037,5.686081048745354,298.7648598761076,20,False,False,True,False,False,False,False,0.6346127575552722,0.23412138328521223,mp-574486,Ag2CN2
0.0,5.546454345509773,247.6640829751134,18,False,True,False,False,False,False,False,-0.6437259136522654,-1.041239684949658,mp-1229177,Ag2CO3
0.4736,6.103459150948377,150.04142135044484,12,False,False,True,False,False,False,False,-0.9285386887922675,-1.0706132305289007,mp-4691,Ag2CO3
0.0,4.6617796841379775,229.46257914848442,10,False,False,False,False,False,False,True,-0.20831962890926906,-0.5235202982897988,mp-864635,Ag2Cl3
0.0,8.762918242663323,44.481336035584704,3,False,False,False,False,False,False,True,-1.024510114343693,-0.811459350410454,mp-1391,Ag2F
0.0,5.946934730142781,152.3075375762956,10,False,False,False,False,False,False,True,-1.0540769192001425,-1.2193661048749591,mp-861945,Ag2F3
0.0,6.176992378539396,189.45491825018817,14,False,False,False,True,False,False,False,-0.8089461188994491,-1.0634659390493357,mp-755127,Ag2GeO4
1.3699,5.680462312578542,364.72549463914106,16,False,False,False,True,False,False,False,-0.43752598958639344,-0.5257481919132924,mp-861942,Ag2GePbS4
0.4646,4.7677750672269035,267.88001723767724,12,False,False,False,True,False,False,False,0.0778677729508562,-0.46800229958000045,mp-9900,Ag2GeS3
0.062599999999999,5.642427207102897,309.1608416617966,12,False,False,False,True,False,False,False,-0.33859466675485594,-0.410431232696527,mp-1096802,Ag2GeSe3
1.4591,5.04416628656165,249.96448633373691,14,False,False,True,False,False,False,False,-0.8126314595521654,-1.062117675864245,mp-690687,Ag2H2IOF
0.6966000000000001,5.613015747803879,130.6597962831448,12,False,False,False,False,False,False,True,-0.4769280594140304,-0.802433143509787,mp-555477,Ag2H3IO6
0.0,12.04099188665414,57.41439394400578,3,False,False,False,False,False,False,True,0.5708600375265843,0.048493261240256796,mp-1229093,Ag2Hg
0.0,12.433692600006895,325.51494431074997,14,False,False,False,False,True,False,False,0.1644089282754571,0.05739090055616584,mp-759790,Ag2Hg5
0.0,1.018300100581862,1000.0950934932492,4,False,False,False,True,False,False,False,1.4084183196982392,0.9286405319815216,mp-1095946,Ag2HgAu
0.44410000000000005,5.334012673413459,384.2992556974872,16,False,False,True,False,False,False,False,-0.16246159220122797,-0.5104551003200785,mp-1229141,Ag2HgGeS4
1.276399999999999,5.746625628681051,266.9819945542102,7,False,False,False,False,True,False,False,-0.3584654570619527,-0.5259737718190232,mp-1229122,Ag2HgI4
1.2219,5.75190222011236,266.73707472580065,7,False,False,False,False,True,False,False,-0.14304702540812744,-0.5209088113487081,mp-23485,Ag2HgI4
0.087199999999999,1.260149966781625,1217.5103065074175,7,False,False,False,False,False,False,True,-0.08001076506874152,-0.4175551119796234,mp-37163,Ag2HgI4