band_gap,density,volume,nsites,crystal_Cubic,crystal_Hexagonal,crystal_Monoclinic,crystal_Orthorhombic,crystal_Tetragonal,crystal_Triclinic,crystal_Trigonal,formation_energy_pbe,formation_energy_r2scan,material_id,formula
0.0,2.847082353837755,144.42952019973077,7,False,False,False,False,False,False,True,-0.47598066838327363,-1.0760408741716474,mp-1078069,Al2ZnS4
3.0979,2.820287600190814,145.8017041616912,7,False,False,False,False,True,False,False,-0.5805118772545392,-1.2520717683456848,mp-1096810,Al2ZnS4
0.44880000000000003,2.92547701051947,140.55921029469678,7,False,False,False,False,False,False,True,-0.5977905470181706,-1.0886544157432412,mp-1096814,Al2ZnS4
1.394499999999999,2.850988084243483,144.231658001833,7,False,False,False,False,False,False,True,-0.6213579384497075,-1.025665972647291,mp-1096816,Al2ZnS4
0.20389999999999903,2.914990563677234,282.1297217615542,14,False,False,False,False,False,False,True,-0.6765457670841064,-1.0546053727212101,mp-1096817,Al2ZnS4
4.970000000000001,3.369007397916017,120.21793472864,12,False,False,False,True,False,False,False,-2.5971655326821463,-3.03982450225609,mp-13024,AlPO4
5.6177,2.61430889495698,232.3836591637565,18,False,False,False,False,False,False,True,-2.909797339334199,-3.1280555865530917,mp-3955,AlPO4
5.475,2.334921469215768,173.4598429980627,12,False,False,False,True,False,False,False,-2.942170104953822,-3.1188997662791427,mp-4051,AlPO4
5.6126000000000005,2.6215115904003943,231.745176873954,18,False,False,False,False,False,False,True,-2.827678371607673,-3.112993292620728,mp-5331,AlPO4
5.3232,1.939538556999476,208.82034543801154,12,False,True,False,False,False,False,False,-2.8341952266525485,-3.149673284172234,mp-545974,AlPO4
0.018199999999999,2.071390333308063,97.76407298767143,6,False,False,False,False,True,False,False,-0.07061665650623333,-0.2848554308917221,mp-551798,AlPO4
5.4854,2.383963719840406,254.83721171525633,18,False,True,False,False,False,False,False,-2.711702573099745,-3.1972924391663353,mp-560151,AlPO4
0.0,2.215976132129764,274.15578100589585,18,False,True,False,False,False,False,False,0.012836309956212572,-0.44935600790027835,mp-562607,AlPO4
5.4878,2.211096237666642,183.17389562852466,12,False,False,True,False,False,False,False,-2.806387434496699,-3.134296682714022,mp-5724,AlPO4
2.9478,4.077208014965226,49.66819328035037,6,False,False,False,True,False,False,False,-2.238047520282187,-2.7406772276583387,mp-603719,AlPO4
5.669599999999999,2.177671628864191,92.99269598195042,6,False,False,False,False,True,False,False,-2.991692129560502,-3.11975983686017,mp-7848,AlPO4
0.0,9.318902077908113,258.53753068303877,18,False,False,True,False,False,False,False,-0.3909437018879777,-0.7040616746117085,mp-1228856,AlPPd4
0.0,16.373341289968945,104.80206982291962,7,False,False,False,False,True,False,False,-0.4754848406584498,-0.6975112863425396,mp-1025271,AlPPt5
2.8369999999999997,1.9844128362378792,155.82331246717212,6,False,False,False,True,False,False,False,-0.6690882374319901,-0.6831473445846089,mp-1071955,AlPS4
2.8338,2.038867454788788,303.32308333107903,12,False,False,False,False,True,False,False,-0.40659012274743594,-0.6965600401269677,mp-1102285,AlPS4
2.6141,1.895028946375735,326.3462355404596,12,False,False,False,True,False,False,False,-0.3986710319618566,-0.6977826289934365,mp-27462,AlPS4
0.0,1.643848321953553,376.2120596108128,12,False,False,False,False,True,False,False,0.3824086941152886,-0.15903378105639038,mp-555538,AlPS4
0.0,9.222350772133199,116.7809606608271,4,False,False,False,False,True,False,False,0.5507181276832136,0.17698141491477568,mp-1183278,AlPb3
0.0,9.230856215717134,233.34671401057352,8,False,True,False,False,False,False,False,0.3432988238506143,0.18139607031391858,mp-1183279,AlPb3
0.0,8.311042316450266,56.3792677148114,5,True,False,False,False,False,False,False,-1.6132048180498706,-2.193961440320871,mp-1183154,AlPbO3
0.0,7.691468287349427,115.2021736885745,8,True,False,False,False,False,False,False,-0.4524467506711962,-0.8705037073575829,mp-7189,AlPd
0.0,7.803437664358965,28.387292359827562,2,True,False,False,False,False,False,False,-0.5104938644797068,-0.9405189991065168,mp-829,AlPd
0.0,9.239144648258263,172.41121295032158,12,False,False,False,True,False,False,False,-0.563219256494141,-0.8848019236139059,mp-2824,AlPd2
0.0,9.883613000969207,58.17180430563311,4,True,False,False,False,False,False,False,-0.44554021800852,-0.5781166425560398,mp-1183143,AlPd3
0.0,8.009002168026074,168.539896514369,8,False,False,False,False,True,False,False,-0.280042851410658,-0.5445711268388231,mp-27393,AlPd5I2
0.0,5.655312254591946,106.52686856388705,10,False,True,False,False,False,False,False,-1.5096086980443713,-1.9824681168322777,mp-1178574,AlPdO3
0.0,5.241057626870635,229.89356275876952,20,False,False,True,False,False,False,False,-1.3510966301098086,-1.9572192673439335,mp-776116,AlPdO3
0.0,12.479670714638052,29.547935247870445,2,True,False,False,False,False,False,False,-0.4887968420091695,-1.0280773754730232,mp-10903,AlPt
0.0,12.700357383544183,116.13799235875254,8,True,False,False,False,False,False,False,-0.9043432632679411,-1.0830597066371097,mp-10904,AlPt
0.0,15.807795865163374,175.27885895490226,12,False,False,False,True,False,False,False,-0.7895901283266826,-0.8975836595747875,mp-16526,AlPt2
0.0,16.84067881414494,120.73595369257413,8,False,False,False,False,True,False,False,-0.4184675917133075,-0.7137338233933788,mp-1079182,AlPt3
0.0,16.826103594812515,120.84053839315338,8,False,False,False,False,True,False,False,-0.7159766823344168,-0.7931975891737684,mp-1080448,AlPt3
0.0,16.311184212790767,249.31058235019884,16,False,False,False,False,True,False,False,-0.22044556974727486,-0.6034553389715781,mp-1182870,AlPt3
0.0,17.271906288275805,58.86077030293721,4,True,False,False,False,False,False,False,-0.4613761279447983,-0.8244080997845609,mp-188,AlPt3
0.0,17.220857989024434,236.14101210892144,16,False,False,False,False,True,False,False,-0.5230310984052304,-0.7774070477574767,mp-607111,AlPt3
0.0,14.140688509233518,73.3049133087409,5,True,False,False,False,False,False,False,0.22412976240999272,0.19203631809158175,mp-10040,AlPt3C
0.0,12.322002204711783,28.729738155808292,2,True,False,False,False,False,False,False,0.3002072197354595,-0.061324400777546875,mp-10908,AlRe
0.0,12.52322873576359,56.53620234304166,4,False,False,False,False,True,False,False,-0.16210001469928575,-0.38884028663856274,mp-1228815,AlRe
0.0,8.245321605532672,142.75925029432327,12,False,False,False,False,False,True,False,-1.821986259731543,-1.9471677428865415,mp-1257650,AlRe(WO4)2
0.0,15.507390075763249,42.7674735484724,3,False,False,False,False,True,False,False,-0.45386220699224444,-0.3436894412772592,mp-10909,AlRe2
0.11870000000000001,11.123343769607862,42.66967420276164,3,False,False,False,False,True,False,False,0.007099063409073514,-0.2826309343612775,mp-1228817,AlReGe
0.0,9.913626547183803,40.41356257922272,3,False,False,False,False,True,False,False,0.10849605533379553,-0.4343653357822476,mp-1228809,AlReSi
0.0,0.921875097321693,737.0559807118383,4,False,False,False,True,False,False,False,4.340458630932181,3.7427931451276857,mp-1097163,AlReTc2
0.0,8.17216802301044,26.39232346092043,2,True,False,False,False,False,False,False,-0.9460510484879409,-1.1684971793648797,mp-364,AlRh
0.0,10.16585494856076,109.66902646101886,8,False,True,False,False,False,False,False,-0.2951575528042671,-0.47685269762135996,mp-1183306,AlRh3
1.7659,5.973716649319428,98.89501139978404,10,False,True,False,False,False,False,False,-1.8526923975887464,-2.235461544668901,mp-1178547,AlRhO3
0.0,8.014834031012581,26.530129203021556,2,True,False,False,False,False,False,False,-0.5781669483782448,-0.7073881141363836,mp-542569,AlRu
0.254899999999999,0.9367453309124071,732.0439667210527,4,False,False,False,True,False,False,False,3.667828708514588,3.406999556875845,mp-1093864,AlRu2W
0.0,2.131861297568313,181.5755894561693,12,False,False,False,False,False,False,True,-1.0079081849089624,-1.4259505104562729,mp-1214883,AlS2NO8
0.147899999999999,2.611498380017442,379.93531117741725,10,False,False,False,False,False,False,True,-0.36915066391735285,-0.8413914359998393,mp-1079481,AlSBr3
3.9643,1.804394078182705,363.3326224299911,14,False,False,False,False,False,True,False,-1.546864772543421,-1.8539833735812699,mp-556418,AlSCl3O2
2.4961,1.9468865434888991,524.0641541194176,18,False,False,True,False,False,False,False,-0.6329084825612659,-0.8969198851566595,mp-555805,AlSCl7
0.9179,4.178128601351843,118.23050903295669,4,False,True,False,False,False,False,False,-0.07578765051348219,-0.2302821137505289,mp-1018100,AlSb
0.0,5.13244606627408,96.24694832917986,4,False,False,False,True,False,False,False,0.11078716939402097,-0.059335507291895864,mp-1023918,AlSb
0.0,5.225053136605902,47.27055002390517,2,False,False,False,False,True,False,False,0.251634151214771,-0.044984874591265704,mp-1228806,AlSb
0.7752999999999991,4.478851613303173,441.1686869694436,16,True,False,False,False,False,False,False,0.21913133914742866,-0.1297826337352345,mp-15621,AlSb
1.2255,4.175546636123753,59.15180866014202,2,True,False,False,False,False,False,False,0.1840622089349874,-0.2091096068384709,mp-2624,AlSb
1.6412,7.437744210054468,143.87146685815156,12,False,False,False,False,False,True,False,-1.9827485959353848,-2.148812680397897,mp-1041643,AlSb(WO4)2
0.0,7.437743808914137,143.87147461758096,12,False,False,False,False,False,True,False,1.3709079736772614,0.8758643040054883,mp-1387660,AlSb(WO4)2
2.254099999999999,4.081054556908232,740.6762617667613,16,False,False,True,False,False,False,False,-0.5374201145313834,-0.8038619334753769,mp-28118,AlSbI6
1.1346,6.175506915545649,52.901571703463354,5,True,False,False,False,False,False,False,-1.9727498231522642,-2.2470477218172875,mp-1183134,AlSbO3
3.9107000000000003,4.02379034214076,324.7624693329945,20,False,False,True,False,False,False,False,-2.339373603372173,-2.518913816353503,mp-1261047,AlSbO3
0.0,5.039883847069207,259.2869453433543,20,False,False,False,True,False,False,False,-2.31291219654094,-2.2778034793906157,mp-1371447,AlSbO3
0.0,4.803117319471719,136.03416288565865,10,False,True,False,False,False,False,False,-1.3545096815458415,-1.7775608608560327,mp-1384267,AlSbO3
0.0,4.911471828166962,66.5165215902092,5,True,False,False,False,False,False,False,-0.860105772436135,-1.3003832569032092,mp-1421511,AlSbO3
1.6178,5.789865919533531,61.01378780609018,6,False,False,False,True,False,False,False,-2.2855660335677324,-2.5623533082465437,mp-676861,AlSbO4
0.0,2.733580857850718,198.58052826283685,12,False,False,False,False,False,False,True,-0.5370051190568933,-0.8413738774218529,mp-1214825,AlSe2NO8
2.1939,3.423853584629135,645.2998245156656,18,False,False,True,False,False,False,False,-0.652354370938135,-1.0208279253923462,mp-29408,AlSeBr7
2.5979,2.294927242199511,512.449975324386,18,False,False,False,False,False,True,False,-0.8977210209288145,-0.9990161163481469,mp-1205403,AlSeCl7
0.0541,2.021181659015016,581.8553732619556,18,False,False,False,False,False,True,False,-0.6011498845533304,-0.7901724098158999,mp-649130,AlSeCl7
0.0,2.9203068608558853,31.312109731670663,2,True,False,False,False,False,False,False,0.7223475619432731,0.32036804834901317,mp-1021666,AlSi
0.0,9.58560930484965,82.96416925655414,6,False,False,False,False,True,False,False,-0.15297548930872243,-0.2859739289016615,mp-1227997,AlSi3W2
0.0,1.669917061965081,381.2699931267044,20,False,False,True,False,False,False,False,-2.026799855675006,-2.4169610893934754,mp-1228558,AlSi5(CO6)2
3.413599999999999,3.180384983644902,42.335716801907246,4,False,False,False,False,False,False,True,-0.7596662606935118,-0.860526127372444,mp-1227998,AlSiCN
0.0,5.905050802440298,127.39251294328352,9,False,False,False,False,False,False,True,-0.0397394298571941,-0.42308223863805783,mp-1228015,AlSiMo
0.0,8.78438939075451,119.22441396748442,8,True,False,False,False,False,False,False,-0.0009298917196245687,-0.2921894556634113,mp-1228032,AlSiMo6
0.0,0.443174898655107,646.1700268888434,4,False,False,False,True,False,False,False,2.010851894697508,1.9422281672486672,mp-1096756,AlSiNi2
0.0,6.259920079985339,91.49201028812548,8,False,False,True,False,False,False,False,-0.09835892433142332,-0.6332935333223493,mp-1228043,AlSiNi2
0.0,7.921751973737542,85.36206044175206,8,False,False,False,False,True,False,False,-0.24023983714470742,-0.44170150877403475,mp-1228041,AlSiNi6
0.0,3.796389442753493,45.080689872433354,5,True,False,False,False,False,False,False,-1.975687568552156,-2.163318276332048,mp-1183132,AlSiO3
0.288599999999999,2.738096782020926,358.99446069631836,20,False,False,False,True,False,False,False,-0.0430246604510726,-0.35410020929249225,mp-5168,AlSiP3
0.0,16.915041446428795,120.31354430517818,8,False,False,False,True,False,False,False,-0.11289946696068973,-0.6061410596133285,mp-1228017,AlSiPt6
0.0,8.432087579092794,50.652027957914775,4,True,False,False,False,False,False,False,-0.6078184090967587,-0.7050848960488221,mp-862778,AlSiRu2
0.0,0.5583753276683321,746.6422767492103,4,False,False,False,True,False,False,False,3.1946613743585752,2.828060180361827,mp-1095930,AlSiTc2
1.2504,4.76974110495312,304.87831837107495,10,False,False,False,False,False,False,True,0.03194015904958791,-0.29304729106591926,mp-31220,AlSiTe3
0.0,4.793270592807986,50.47211227368594,2,False,True,False,False,False,False,False,0.6110561585894716,0.20036074837365686,mp-7760,AlSn
1.1757,7.087900053710785,150.25811839792442,12,False,False,False,False,False,True,False,-1.851975397125082,-2.1526540842463593,mp-1041835,AlSn(WO4)2
3.7554,3.731429730632263,107.107589838958,7,False,False,False,True,False,False,False,-2.9392787942553555,-3.181830573871095,mp-1253073,AlSnF5
0.0,5.027428680722427,255.89970394060344,20,False,False,True,False,False,False,False,-2.260765911097308,-2.402440711919236,mp-1340379,AlSnO3
0.0,5.056249704746504,127.22052767406466,10,False,True,False,False,False,False,False,-1.7007690415430439,-2.0253114829365844,mp-1406914,AlSnO3
0.0,4.890131134048122,65.77111511498312,5,True,False,False,False,False,False,False,-1.214253615797841,-1.3863913767553342,mp-1426094,AlSnO3
0.0,0.6711858199455091,860.5483627287865,4,False,False,False,True,False,False,False,2.58948458167224,2.770302282814563,mp-1097296,AlSnRu2
0.0,8.861367365024536,41.78469763451124,3,False,False,False,False,True,False,False,-0.10212867604301486,-0.47101706604312926,mp-1018166,AlTc2
0.0,0.642275713842541,764.299666317517,4,False,False,False,True,False,False,False,3.2846206663593622,2.8556771944051595,mp-1096126,AlTc2Ge
0.07740000000000001,0.709254163048267,746.6740438285443,4,False,False,False,True,False,False,False,3.484463794668719,3.575946217421339,mp-1097493,AlTc2Mo
0.0,10.380449275594453,68.81525371496873,4,True,False,False,False,False,False,False,0.6496521142935093,0.470153062737167,mp-631582,AlTc2Pb
0.0,0.6681792596930051,856.7413376286278,4,False,False,False,True,False,False,False,3.1481939016507816,2.7731854894291796,mp-1097542,AlTc2Sb
0.0,0.8913558403239421,757.8825732875764,4,False,False,False,True,False,False,False,4.297322412956759,3.6710012498061175,mp-1097605,AlTc2W
0.0,9.18696124674635,116.03453420279612,8,False,True,False,False,False,False,False,0.15070818615131418,-0.15637595066932816,mp-1183188,AlTc3
0.07880000000000001,5.683219946196227,189.99382884836214,12,False,False,False,False,False,True,False,-1.881070071739925,-2.0697012615940262,mp-1041771,AlTe(WO4)2
0.0,5.683218887418447,189.99386424401527,12,False,False,False,False,False,True,False,-0.5036968867212811,-0.8212690763989632,mp-1392021,AlTe(WO4)2
1.8846,3.960312239223144,874.5762406291072,18,False,False,True,False,False,False,False,-0.17428478231295835,-0.7038813564697991,mp-29407,AlTeI7
3.8702,4.340171856188125,210.903081605927,12,False,False,False,False,False,False,True,-2.000103186313126,-2.1626763726720517,mp-18733,AlTl(MoO4)2
4.9822,3.935380166478504,178.69220346264683,12,False,False,False,False,False,False,True,-1.9553707441919832,-2.108906207536901,mp-1214834,AlTl(SO4)2
3.2568,4.289678941163247,200.23962731223136,12,False,False,False,False,False,False,True,-1.3525497456623747,-1.582017404654887,mp-1214828,AlTl(SeO4)2
0.0,6.569861671732394,238.1485929070404,10,False,False,False,False,True,False,False,-0.29147504873880986,-0.4411820537446162,mp-1228066,AlTl2Cu3Se4
4.0443,6.138058821480558,287.1639997461093,16,False,False,False,True,False,False,False,-2.5914338613507777,-2.918661683919091,mp-1183276,AlTl2F5
4.0476,6.115659975395427,288.21574923142765,16,False,False,False,False,True,False,False,-2.366598166854564,-2.8696024340501585,mp-1539038,AlTl2F5
4.0814,6.104803113864427,288.72831588134176,16,False,False,False,True,False,False,False,-2.561576135907596,-2.916048604208825,mp-27758,AlTl2F5
4.2238,5.689761734204138,309.78968965557164,16,False,False,False,True,False,False,False,-2.6436727184439395,-2.898864430360951,mp-504676,AlTl2F5
0.0,6.065372835212804,299.3657321106562,18,False,False,False,True,False,False,False,-2.152620104411408,-2.3744675097498145,mp-1105758,AlTl2OF5
0.0,5.717286847549075,317.5920375791468,18,False,False,False,True,False,False,False,-2.396819549823019,-2.485662073063897,mp-1182863,AlTl2OF5
4.433300000000001,6.289144082639177,162.30530237278367,12,False,False,True,False,False,False,False,-2.8215624634279286,-3.2072652544650952,mp-3751,AlTlF4
4.2399000000000004,6.234625000149917,163.72459161123717,12,False,False,False,False,True,False,False,-2.9624176003852534,-3.2966558631256344,mp-557233,AlTlF4
4.2492,6.1223086207821265,83.36409475780006,6,False,False,False,False,True,False,False,-2.974605615371928,-3.19864436439995,mp-5606,AlTlF4
0.0,4.166754429455068,151.85707572342972,6,False,False,False,False,True,False,False,0.47004496628783904,-0.32010143640744926,mp-1214823,AlTlFe2F2
0.0,4.840934434299206,261.41694398151634,12,False,False,False,False,True,False,False,-0.09135300596737012,-0.4434469046569815,mp-1214879,AlTlFe2F2
0.0,6.004662772902344,210.7532652025537,12,False,False,True,False,False,False,False,-0.47114387890316767,-0.7150755265243783,mp-1237061,AlTlFe2F2
2.196999999999999,6.618871080493953,132.1450758894633,8,True,False,False,False,False,False,False,-2.1933913765141666,-2.443081578604666,mp-14105,AlTlO2
1.208199999999999,8.659458159188336,214.28280191741933,20,False,False,False,True,False,False,False,-1.7159077497871547,-2.2193688020974744,mp-768539,AlTlO3
0.587299999999999,6.078303576517259,212.69838677612154,8,False,False,False,False,True,False,False,-0.5742858692005854,-0.9095058211424543,mp-9579,AlTlSe2
0.0,4.613582749090788,28.046370211736175,2,False,False,False,True,False,False,False,-0.20212499174760504,-0.29050262397366644,mp-1228001,AlV
0.0,7.025416182181519,135.5766347542538,12,False,False,False,False,False,True,False,-1.8931617381470525,-2.302312329899146,mp-1047301,AlV(WO4)2
0.0,5.158118530756612,41.48501035188418,3,False,False,False,True,False,False,False,0.016667430502484884,-0.17688285612464724,mp-1228006,AlV2
0.0,4.943996906524432,94.63146585030746,8,False,True,False,False,False,False,False,0.006918998932631759,-0.5648453678979667,mp-1025497,AlV2C
0.0,5.805536461345588,52.83187985488436,4,False,False,False,True,False,False,False,0.32811505735719826,-0.16675773416536588,mp-1228827,AlV2Fe
0.0,4.240517557005707,151.04529638568965,14,False,False,False,True,False,False,False,-2.4158561550630977,-2.6751804934023666,mp-1045494,AlV2O4
0.41579999999999906,4.303554588663668,148.83283528315548,14,False,False,False,True,False,False,False,-2.065528869311162,-2.5037195730208897,mp-1045538,AlV2O4
0.2614,4.261137138566267,150.31439036063463,14,False,False,False,False,False,True,False,-1.9622503162780327,-2.2944846739000404,mp-1252214,AlV2O4
0.2716,4.33826311860247,147.64208940673518,14,False,False,False,True,False,False,False,-2.337070269445952,-2.715300073152566,mp-1281387,AlV2O4
0.0,4.105330961103537,156.01914615295104,14,False,False,True,False,False,False,False,-1.8474112131201146,-2.2274129716807116,mp-1385641,AlV2O4
0.0,4.491798528939052,142.59549423244817,14,True,False,False,False,False,False,False,-2.5387424346772036,-2.711720298344267,mp-19456,AlV2O4