band_gap,density,volume,nsites,crystal_Cubic,crystal_Hexagonal,crystal_Monoclinic,crystal_Orthorhombic,crystal_Tetragonal,crystal_Triclinic,crystal_Trigonal,formation_energy_pbe,formation_energy_r2scan,material_id,formula
1.1066,2.802537547323181,498.30051951647954,20,False,False,True,False,False,False,False,-0.5632386369215633,-0.8269144107900445,mp-1214843,Ba(HCl)2
3.543599999999999,4.863429272042161,332.64687771828727,18,False,False,True,False,False,False,False,-1.2732125189310273,-1.502022725942153,mp-30991,Ba(IO3)2
0.0,9.561809190144059,528.5601239884305,20,False,False,False,True,False,False,False,-0.040527266965196485,-0.5674393947717052,mp-574176,Ba(InAu)2
0.0,6.800549150060246,120.63696775749278,5,False,False,False,False,True,False,False,-0.18658266536609106,-0.1859153608737649,mp-1214759,Ba(InCu)2
0.250899999999999,5.033575930184728,565.9775007321595,20,False,False,True,False,False,False,False,-0.02718828932935924,-0.5372422764728232,mp-1105940,Ba(InP)2
0.0,10.283856554324084,122.25429219014988,5,False,False,False,False,True,False,False,-0.5757681535341908,-0.6860586847622638,mp-1214750,Ba(InPt)2
0.9642000000000001,5.30128227150803,549.6389222356725,14,False,False,False,True,False,False,False,-0.7576861429565882,-1.0461901984954098,mp-21183,Ba(InTe2)2
0.8637,5.340244265066092,272.81440038611134,7,False,False,False,False,True,False,False,-0.7686766551876553,-1.047598120007949,mp-33985,Ba(InTe2)2
2.1563,5.2281325602853475,454.3097140898724,11,False,False,True,False,False,False,False,-1.424563204079847,-1.8273334897292706,mp-754198,Ba(LaI4)2
2.068399999999999,4.992658965905812,361.46410729908666,14,False,False,False,False,True,False,False,-2.3733737149254175,-2.43613651285975,mp-33615,Ba(LaS2)2
1.7602,6.004214278098245,404.3218212982402,14,False,False,False,False,True,False,False,-1.9349904778555649,-2.297023625938035,mp-37741,Ba(LaSe2)2
1.0689,4.104683991764778,135.8389929674064,5,False,False,False,False,False,False,True,-0.32493198550697416,-0.9000392416710176,mp-8280,Ba(MgAs)2
0.39679999999999904,5.791868242563416,173.13858795412915,5,False,False,False,False,False,False,True,-0.49654930068892267,-0.5762662622900273,mp-29209,Ba(MgBi)2
0.0,4.433259764076941,124.06193124046918,5,False,False,False,False,True,False,False,-0.13062289085844173,-0.46480498258659647,mp-7876,Ba(MgGe)2
0.0,4.60832310042589,149.74540336817674,5,False,False,False,False,True,False,False,-0.0829201933361574,-0.2895687369580576,mp-1214765,Ba(MgIn)2
1.1366,3.257013304267086,126.38018259497746,5,False,False,False,False,False,False,True,-0.5541887949281868,-0.9027671517896866,mp-8278,Ba(MgP)2
0.0,6.531705961039827,305.24431062011354,10,False,False,False,False,True,False,False,-0.060773662387637234,-0.32546872411214295,mp-20452,Ba(MgPb)2
0.8466,4.358063461124373,163.63463549492457,5,False,False,False,False,False,False,True,-0.6296738203566444,-0.829661358015502,mp-9567,Ba(MgSb)2
0.0,3.35936220908619,119.67444035924677,5,False,False,False,False,True,False,False,0.07795776073066006,-0.3092970076263133,mp-7875,Ba(MgSi)2
0.0,4.770395507162533,589.4696459134695,20,False,False,False,False,True,False,False,0.09873481596801542,-0.5017033805325624,mp-29622,Ba(MgSn)2
0.0,5.812032038738355,226.87792200702066,10,False,False,True,False,False,False,False,-0.3215306569315089,-0.6362512461047809,mp-1232849,Ba(MnAs)2
0.0,5.420801440708473,121.6260885046223,5,False,False,False,False,True,False,False,-0.25689267285018574,-0.6448682740111074,mp-15608,Ba(MnAs)2
0.0,7.519088314696907,146.8968814846469,5,False,False,False,False,True,False,False,-0.09350294885308957,-0.1821726494632283,mp-1068010,Ba(MnBi)2
0.0,7.386921709376489,299.05031310528284,10,False,False,True,False,False,False,False,0.004623218304883658,-0.13459041941921518,mp-1232615,Ba(MnBi)2
0.0,5.816611380186937,112.04693958837903,5,False,False,False,False,True,False,False,0.13462888650964255,-0.2400918385629757,mp-22412,Ba(MnGe)2
0.0,6.786285330643483,67.3428409138515,5,False,False,False,False,False,False,True,0.1579748711079807,-0.3224344907956615,mp-1246182,Ba(MnN)2
0.0,4.85295206419235,188.34215849341405,10,False,False,False,False,True,False,False,-0.02854130085456605,-0.39640685800995956,mp-1246276,Ba(MnN)2
0.0,5.428676056659856,94.56388015280356,5,False,False,False,False,True,False,False,-0.5080889156080342,-0.7324721339133449,mp-19857,Ba(MnP)2
0.0,6.134764734780979,132.8274020367563,5,False,False,False,False,True,False,False,-0.0855267783589109,-0.3865827760221003,mp-567240,Ba(MnSb)2
0.0,6.015508372377901,133.77681879998772,5,False,False,False,False,True,False,False,-0.01763362526787063,-0.14832298811279312,mp-22679,Ba(MnSn)2
0.0,5.316099567700779,302.8293615571059,15,False,False,False,False,False,False,True,-0.7713452550467089,-1.144246644780481,mp-3835,Ba(Mo3S4)2
0.0,5.330034271050947,302.03765232890487,15,False,False,False,False,False,True,False,-0.7315337286515036,-1.1515946044394951,mp-5716,Ba(Mo3S4)2
0.0,4.5208242197881425,238.41368257958592,13,False,False,False,False,False,False,True,-1.349925150694192,-1.5714024179912223,mp-1047842,Ba(MoO2)4
0.0,6.767523260366471,324.88154213879073,14,False,True,False,False,False,False,False,-0.7798557517398181,-1.006911076914207,mp-1104001,Ba(MoSe)3
2.0966,5.27996088112591,348.50884765416424,14,False,False,False,False,True,False,False,-1.9834806762664767,-2.324499203165789,mp-34459,Ba(NdS2)2
1.751599999999999,6.290555759279743,391.55219551665346,14,False,False,False,False,True,False,False,-1.9509636624596562,-2.1138045422674536,mp-36007,Ba(NdSe2)2
0.0,7.593142969793615,198.24486188397606,19,False,False,False,False,False,False,True,-0.021015144035980392,-0.27556755248622183,mp-17236,Ba(Ni2B)6
0.0,6.650820454076712,101.00749340703037,5,False,False,True,False,False,False,False,-0.03773109862502472,-0.6310045601504366,mp-1070400,Ba(NiAs)2
0.0,6.664653458379785,100.79784453336158,5,False,False,False,False,True,False,False,-0.38993704611189955,-0.6495292162538984,mp-568280,Ba(NiAs)2
0.0,5.957385786943182,308.09916148513526,20,False,False,False,False,False,True,False,0.19474324553015065,-0.021291015648765933,mp-1190153,Ba(NiB)2
0.0,5.978469521078293,307.012615708645,20,False,False,False,True,False,False,False,0.3682432169880602,0.18091433112507754,mp-1237990,Ba(NiB)2
0.0,5.601947534300268,167.6129802772505,10,False,False,False,False,True,False,False,0.05423926972499049,-0.35660338341677894,mp-1247460,Ba(NiN)2
0.0,4.119096807966892,201.60453896990683,13,False,False,False,False,False,False,True,-0.5536883229057914,-0.8356116266810535,mp-1047829,Ba(NiO2)4
0.0,5.6948836013396935,92.33349374508401,5,False,False,False,False,True,False,False,-0.571609825605356,-0.7766313899870227,mp-9473,Ba(NiP)2
0.0,5.112949422699576,122.96127559432767,7,False,False,False,False,True,False,False,-0.1554077306692482,-0.7487161075865416,mp-28927,Ba(NiP2)2
0.0,5.098309075612511,123.31437222426335,7,False,False,False,True,False,False,False,-0.14123275626172846,-0.6478551817598448,mp-571420,Ba(NiP2)2
0.190999999999999,6.628075170079297,328.27351927137954,14,False,False,False,True,False,False,False,-0.2638873475138598,-0.4884780950563648,mp-1104130,Ba(P2Au)2
0.0,5.626875389211948,139.8997660772176,7,False,False,False,False,True,False,False,-0.6439576339285815,-0.6161965412760025,mp-28895,Ba(P2Pd)2
0.0,9.616446322084677,100.79303467679553,5,False,False,False,False,True,False,False,-0.3945081983816098,-0.8450549297327954,mp-11169,Ba(PIr)2
0.0,9.479777221254436,101.55004731549664,5,False,False,False,False,True,False,False,-0.47336078372114265,-0.7063352124431909,mp-12056,Ba(POs)2
0.0,6.493142454174843,105.39307767308625,5,False,False,False,False,True,False,False,-0.37837138998272973,-0.7984616344809885,mp-8236,Ba(PPd)2
0.0,6.74091768376476,99.78765050583665,5,False,False,False,False,True,False,False,-0.9498553625139174,-0.9857234224090172,mp-8583,Ba(PRh)2
0.0,6.646252320384417,100.29178353013376,5,False,False,False,False,True,False,False,-0.5071464491122446,-0.926833827385767,mp-4484,Ba(PRu)2
0.0,6.660145063733327,206.5229786203045,14,False,False,False,False,True,False,False,-1.4001528186778314,-1.5097486083555296,mp-759541,Ba(PdO2)2
0.7791999999999991,5.022717317257348,316.34140399923814,14,False,False,True,False,False,False,False,-0.7150142542828792,-1.0958936832096098,mp-28967,Ba(PdS2)2
2.1235,5.154568474238588,352.6902043651537,14,False,False,False,False,True,False,False,-2.021180388872153,-2.3470478027984547,mp-36223,Ba(PrS2)2
1.619,6.156267850620727,396.49568603044554,14,False,False,False,False,True,False,False,-2.0338894782964005,-2.1897783225000595,mp-33606,Ba(PrSe2)2
0.0,10.82558207264576,518.2270673164023,20,False,False,False,True,False,False,False,-0.0037273849390070946,-0.28362259186278904,mp-30432,Ba(RhPb2)3
0.0,5.8841576624358645,207.4096567144612,10,False,False,False,False,True,False,False,0.2554555355435041,-0.12644738954225956,mp-1245703,Ba(RuN)2
0.0,9.418350094191627,415.97743094759176,17,True,False,False,False,False,False,False,0.015491537379048115,-0.28482649517503333,mp-1106056,Ba(Sb3Os)4
0.0,8.057243698993018,412.7474043822514,17,True,False,False,False,False,False,False,-0.07690616116441942,-0.4496939576044649,mp-9976,Ba(Sb3Ru)4
0.0,9.585656862317533,268.43286916149594,10,False,False,True,False,False,False,False,-0.012972880322680291,-0.6093903970592949,mp-570298,Ba(SbAu)2
0.0,5.131792039098919,243.4484514989211,13,False,False,False,False,False,False,True,-1.7423845040643497,-1.7953050755840285,mp-1047430,Ba(SbO2)4
2.8606,5.537944435702883,142.98032483777925,9,False,False,False,False,False,False,True,-1.8342974315324856,-2.328749144528521,mp-9127,Ba(SbO3)2
0.0,8.00496437008519,246.30726915329487,10,False,False,False,False,True,False,False,-0.5645791973715142,-0.8887854157112565,mp-1079967,Ba(SbPd)2
0.0,7.8466660536510116,125.6381309070555,5,False,False,False,False,True,False,False,-0.7018235162484643,-0.8628465534886925,mp-6963,Ba(SbPd)2
0.0,7.733276698629149,125.18272997932957,5,False,False,False,False,True,False,False,-0.41629752986084856,-0.5493342749754424,mp-1069937,Ba(SbRu)2
0.0,4.20341587229393,309.11761766501735,18,False,False,False,False,False,True,False,-0.611931603026277,-0.909611373257672,mp-1105447,Ba(SeO3)2
0.0,4.312485041417005,301.29957275675036,18,False,False,False,False,False,True,False,-0.42445086262105314,-0.8597639806169228,mp-1182383,Ba(SeO3)2
3.2602,3.853633156859847,180.07127825513237,15,False,False,False,True,False,False,False,-1.0326425633899632,-1.2803921889322758,mp-567771,Ba(Si3N4)2
0.0,9.27263914343489,413.98296601145404,20,False,False,True,False,False,False,False,-0.29866544896289987,-0.8330271132275492,mp-14561,Ba(SiIr)2
0.0,5.205425394238452,198.345501669668,10,False,False,False,True,False,False,False,-0.4452736155077328,-0.5346747578793627,mp-27388,Ba(SiNi)2
0.0,6.453688470857988,410.970065964047,20,False,False,True,False,False,False,False,-0.5435142921769074,-0.8539075073351303,mp-18655,Ba(SiRh)2
0.0,7.8279676961782,489.0833811932743,20,False,False,False,True,False,False,False,-0.1908757831619679,-0.31905946662532975,mp-1190471,Ba(Sn2Ru)3
0.0,5.000838522639987,245.77243259431745,13,False,False,False,False,False,False,True,-1.5248904352985617,-1.8705860740210425,mp-1047280,Ba(SnO2)4
0.0,6.663196243214332,368.47455432307095,13,False,True,False,False,False,False,False,-0.04887944687002099,-0.5268302847399754,mp-1228689,Ba(TeMo)6
1.762,6.127378210556743,264.78280359800095,18,False,False,False,True,False,False,False,-1.761016372200306,-1.9594739158481462,mp-27254,Ba(TeO3)2
0.0,9.815611249997144,641.013495541311,20,False,False,False,False,True,False,False,-0.4050757423274082,-0.33440633277722187,mp-3392,Ba(TlHg)2
0.0,7.104833679668856,233.87906899302416,13,False,False,False,False,False,False,True,-1.1251123256728317,-1.4332974431291619,mp-1041454,Ba(WO2)4
0.0,6.039953960120641,114.9157328119684,5,False,False,False,False,True,False,False,-0.2784250302399736,-0.6820357709218163,mp-570198,Ba(ZnAs)2
0.2974,5.942561357577934,467.19634427852776,20,False,False,False,True,False,False,False,-0.31256869725574443,-0.6531477065836125,mp-7427,Ba(ZnAs)2
0.0,6.32013614291339,108.62240117704891,5,False,False,False,False,True,False,False,0.09870999277332307,-0.3664989977655651,mp-1206924,Ba(ZnGe)2
0.5185000000000001,5.376101319128463,182.95138573819654,10,False,False,False,False,True,False,False,-0.15279529394735736,-0.28061117983982314,mp-1245788,Ba(ZnN)2
0.5057,6.404602204425245,76.78581392017654,5,False,False,False,False,False,False,True,0.13442416981756738,-0.29744110165399373,mp-1247526,Ba(ZnN)2
0.0,5.113323286419749,107.19672920942755,5,False,False,False,False,True,False,False,-0.17022483498544383,-0.6416145161691977,mp-7426,Ba(ZnP)2
0.0,3.652629241284718,232.61044726593985,5,False,False,False,False,True,False,False,-0.3649624096009766,-0.43366595754203074,mp-1228651,Ba(ZnSb)2
0.0,6.059220142479464,560.8904786642804,20,False,False,False,True,False,False,False,-0.26090731361215147,-0.6164379851528836,mp-14207,Ba(ZnSb)2
0.0,5.235217300932692,102.86858347360307,5,False,False,False,False,True,False,False,-0.04479411865115275,-0.23828475097134225,mp-1070267,Ba(ZnSi)2
0.0,6.512187701812145,257.8274680172436,10,False,False,False,False,True,False,False,-0.12809717696524395,-0.3919677181878748,mp-13920,Ba(ZnSn)2
1.1066,4.989808817975237,598.473388758184,20,False,False,False,False,False,False,True,-1.0832552867192495,-1.434951270973787,mp-1228723,Ba10Br4N5Cl
1.0519,4.76667759740489,580.0329201845008,20,False,False,False,False,False,False,True,-1.2885083716170327,-1.5446682842776853,mp-1228725,Ba10BrN5Cl4
0.0,5.030015491994267,637.0601203716296,20,False,True,False,False,False,False,False,-1.0204846328742416,-1.1997607896347742,mp-1228879,Ba10Ge7O3
1.1413,5.068977423447402,619.084732290615,20,False,False,False,False,False,True,False,-1.0597162528767965,-1.3642576783690594,mp-1228711,Ba10IBr4N5
1.125899999999999,5.08300417534274,617.3763433846691,20,False,False,False,False,False,False,True,-1.2298012768294202,-1.4363238539469125,mp-1228784,Ba10IBr4N5
0.0,5.92426256350371,265.97234258917723,12,False,False,False,True,False,False,False,-0.13811030336055286,-0.2517576392382795,mp-1228156,Ba2(AlAg)5
0.0,3.038951057095295,348.4630128410839,14,False,False,False,False,False,False,True,0.11297494315776248,-0.28965803430180376,mp-1228507,Ba2(CaAl3)3
0.0,4.145579476619484,224.8277523289557,11,False,False,True,False,False,False,False,-1.5379930261828896,-1.629600383469599,mp-1228668,Ba2(CuO2)3
0.11569999999999901,0.571655807810113,1683.2921601315695,4,False,False,False,True,False,False,False,1.2310760372197147,0.7982710465180489,mp-1097642,Ba2AgAu
0.058100000000000006,6.496551679641452,151.1899271691289,4,True,False,False,False,False,False,False,-0.28812161398857244,-0.752811422312545,mp-1183207,Ba2AgBi
0.17570000000000002,0.533427162197285,1815.2067553563352,4,False,False,False,True,False,False,False,0.9840415221397425,0.9512850472086877,mp-1093547,Ba2AgHg
0.12660000000000002,6.3888076361701,157.35779143893134,10,True,False,False,False,False,False,False,-1.6782838255170143,-1.867902217366207,mp-1206237,Ba2AgIO6
0.0,0.5038450184801431,1611.4233437466214,4,False,False,False,True,False,False,False,1.35349367754044,0.8236571182551405,mp-1093824,Ba2AgPd
0.20719999999999902,5.728194276168517,146.1857355597762,4,True,False,False,False,False,False,False,-0.6167019650876173,-0.7988821217926633,mp-984720,Ba2AgSb
0.0,4.335271629594071,251.54368875309106,6,False,False,False,False,True,False,False,-0.6928411293464072,-0.8405239576884019,mp-1214752,Ba2AgTe2F
0.0,6.113649023196891,204.5875877635734,14,False,False,False,False,True,False,False,-1.0265206977979284,-1.404998150210327,mp-1042222,Ba2AlAg3O8
0.0,6.921669416850536,253.47627502223457,14,False,False,False,False,True,False,False,-1.4264847064647537,-1.8220645135658566,mp-1042329,Ba2AlBi3O8
0.0,5.568641865669804,180.83426224924884,14,False,False,False,False,True,False,False,-1.6533570186209594,-1.9351459805353366,mp-1048180,Ba2AlCo3O8
0.0,5.381239476350606,175.77282467260454,13,False,False,False,True,False,False,False,-2.118572350357592,-2.3916549081194405,mp-1048330,Ba2AlCr3O7
0.0,5.497769796628769,176.8795944014126,14,False,False,False,False,True,False,False,-1.9202851828880803,-2.4387484095467333,mp-1048171,Ba2AlCr3O8
0.0,5.959778434598862,168.36411865055862,13,False,False,False,True,False,False,False,-1.298350701584209,-1.8671537879624291,mp-1048073,Ba2AlCu3O7
0.0,6.127886273436372,168.08087263316895,14,False,False,False,False,True,False,False,-1.2985818230970156,-1.7574068778743361,mp-1042435,Ba2AlCu3O8
0.34830000000000005,5.280596961170123,182.75384706208274,13,False,False,False,False,False,True,False,-1.8727496859229371,-2.1889866323728824,mp-1048504,Ba2AlFe3O7
1.2784,4.991060835586974,193.35556933252425,13,False,False,False,False,False,True,False,-2.091169495553831,-2.262001589158323,mp-1253719,Ba2AlFe3O7
0.0,5.693858536062614,174.15554529495935,14,False,False,False,False,True,False,False,-1.9724373466977698,-2.1523741942518995,mp-1048153,Ba2AlFe3O8
0.0,5.305451549233519,159.87534404388802,6,False,False,True,False,False,False,False,-0.021414486293469426,-0.43771178712175396,mp-1228405,Ba2AlGa3
0.0,5.577708933488105,192.3472400873276,6,False,False,True,False,False,False,False,-0.038882608533363464,-0.38705679791980785,mp-1228416,Ba2AlIn3
0.0,5.769616502979773,206.48772395722278,14,False,False,False,True,False,False,False,-1.6963439974866077,-2.265064939088245,mp-1048236,Ba2AlMo3O8
0.0,5.889593641906319,166.26597816570887,13,False,False,False,True,False,False,False,-1.4424703411195792,-1.901548578718526,mp-1048483,Ba2AlNi3O7
0.0,5.876599116817155,171.15454987118676,14,False,False,False,False,True,False,False,-1.6885387502639726,-1.740901290158953,mp-1048224,Ba2AlNi3O8
0.0,6.122410646514475,215.5981380727268,14,False,False,False,False,True,False,False,-1.549175882341562,-1.9917574168359393,mp-1042580,Ba2AlSb3O8
0.0,6.084057210768908,210.09315501523173,13,False,False,False,True,False,False,False,-1.7912106956356229,-1.9432234624906821,mp-1048096,Ba2AlSn3O7
0.0,6.383493988537914,204.40003637328104,14,False,False,False,False,True,False,False,-1.8850931090071386,-2.169360873356938,mp-1042344,Ba2AlSn3O8
0.0,0.44737892621343905,1878.1931841152,4,False,False,False,True,False,False,False,1.6959306926044182,1.3371633334464417,mp-1095859,Ba2AlTl
0.0317,6.199589411959298,197.10324590252307,13,False,False,False,False,False,True,False,-1.4762143756349713,-2.083446901533161,mp-1046381,Ba2AlTlCo2O7
0.0,6.167886400317039,198.11635900059397,13,False,False,True,False,False,False,False,-1.2573386395479138,-2.0717032420059414,mp-1266279,Ba2AlTlCo2O7
0.0,6.146988659264892,195.04193488963386,13,False,False,False,False,True,False,False,-1.8419230410013674,-2.2551023596124917,mp-1048438,Ba2AlTlCr2O7
0.0,6.7953786110452725,182.07648947877945,13,False,False,False,False,True,False,False,-1.599804727295238,-1.8527553243418795,mp-1046001,Ba2AlTlCu2O7
0.0,6.26819217440301,193.30981338170895,13,False,False,False,False,True,False,False,-1.5661981041381734,-1.9035547904815795,mp-1046349,Ba2AlTlFe2O7
0.0,6.147309637010172,197.11111543485922,13,False,False,False,False,False,True,False,-1.6717702798368728,-2.1175016362977046,mp-1256846,Ba2AlTlFe2O7
0.0,6.865170326293166,177.8780074475596,13,False,False,False,False,True,False,False,-1.553921782936143,-1.7831269884730812,mp-1048433,Ba2AlTlNi2O7
0.0,6.34207451751917,223.97760108214595,13,False,False,False,False,True,False,False,-1.3688496349464838,-1.995553140450956,mp-1046027,Ba2AlTlSn2O7
0.0,5.303124637224391,225.41769892741186,13,False,False,True,False,False,False,False,-2.053145419070009,-2.3678724957153108,mp-1046436,Ba2AlTlV2O7
0.0,5.379111894435184,222.23336794407936,13,False,False,True,False,False,False,False,-2.0507801826619323,-2.4495600984674657,mp-1265780,Ba2AlTlV2O7
0.0,7.2564187150305415,225.5636725790264,13,False,False,False,False,True,False,False,-1.388551028986703,-1.779219298293633,mp-1046389,Ba2AlTlW2O7