band_gap,density,volume,nsites,crystal_Cubic,crystal_Hexagonal,crystal_Monoclinic,crystal_Orthorhombic,crystal_Tetragonal,crystal_Triclinic,crystal_Trigonal,formation_energy_pbe,formation_energy_r2scan,material_id,formula
1.863,10.100841325313093,196.7516370828484,12,True,False,False,False,False,False,False,-0.3162829495314309,-0.6711234563937766,mp-1228823,AsIrS
1.4699,10.766026352104385,213.52734143483895,12,True,False,False,False,False,False,False,-0.31624934773163094,-0.6267538123545454,mp-1228810,AsIrSe
2.7441999999999993,2.657416696194527,146.79283027722812,10,False,False,True,False,False,False,False,-1.3357534131853859,-1.9057230083331416,mp-1182477,AsN(OF3)2
2.7607,2.940310103539661,132.66958392951483,10,False,False,True,False,False,False,False,-1.6721449655101677,-1.9195047817077242,mp-1183269,AsN(OF3)2
2.6593,2.663374548298367,146.46446115120543,10,False,False,True,False,False,False,False,-1.5262453649644128,-1.8878285728882747,mp-611316,AsN(OF3)2
0.0,3.031091025993627,111.16606452476228,8,False,False,False,False,False,False,True,-1.0048479281672074,-1.2541312995113585,mp-1078960,AsNF6
0.9581000000000001,2.33574768380855,217.4373824752375,12,False,False,False,False,True,False,False,-0.07672357209977188,-0.18175861697771198,mp-1214865,AsNO4
0.931999999999999,4.403818712462105,115.32692321160123,12,False,False,False,False,True,False,False,0.00033672428087415385,-0.22585103950076443,mp-726299,AsNO4
1.1795,10.016300167723147,197.0946426435678,12,False,False,True,False,False,False,False,-0.14894366299475886,-0.4723857801670565,mp-1214793,AsOsS
1.0029,10.666722596410198,214.2779096036626,12,False,False,True,False,False,False,False,-0.07797897919842002,-0.3156273482758696,mp-1214784,AsOsSe
0.0,4.494692209277933,39.12245319262876,2,False,False,False,False,False,False,True,0.2792234588522546,0.09400572475891515,mp-1228795,AsP
0.45819999999999905,3.811700291702115,92.26506394301332,4,False,False,True,False,False,False,False,0.14812487628255794,0.12186843379963135,mp-1228799,AsP
0.7610999999999991,10.11721438334779,97.20615054306167,6,False,False,True,False,False,False,False,-0.12183076855303625,-0.4547214352456284,mp-1228801,AsPOs
0.7984,9.681762037872932,206.4863758833495,12,True,False,False,False,False,False,False,-0.6069189650133794,-0.6464294776097134,mp-1228792,AsPPt
0.0,9.762237403199371,88.0287747318189,6,False,False,False,False,False,False,True,-0.18089270913703162,-0.5657080568600198,mp-1228758,AsPRh4
0.41429999999999906,7.141666143491955,96.24478717678332,6,False,False,True,False,False,False,False,-0.21005112471855758,-0.5457898698400341,mp-1228753,AsPRu
0.0,5.622699286401808,359.25190047300816,16,False,False,True,False,False,False,False,-1.4151589589822384,-1.490429155424918,mp-725644,AsPb2Cl2O3
0.0,10.043780622519115,230.31194547151452,8,False,True,False,False,False,False,False,0.31639914531752045,0.049051509394871545,mp-1183275,AsPb3
4.0652,5.882951634556494,234.34055425478383,18,False,False,False,False,False,True,False,-2.2205145405608078,-2.402120422309658,mp-29992,AsPbF7
0.0,6.33415346768858,181.4747483565695,12,False,False,True,False,False,False,False,-1.151031079687122,-1.4536333258478624,mp-1214810,AsPbO4
0.0,10.164059275196118,141.03795513080647,9,False,True,False,False,False,False,False,0.14171154940347366,-0.3411878305210586,mp-1080831,AsPd2
0.0,10.140649920570864,188.48471544136405,12,False,False,False,True,False,False,False,-0.3523886354468607,-0.35585451380299576,mp-8073,AsPd2
0.0,10.651409553847982,245.80932423105529,16,False,False,False,False,True,False,False,-0.04752050437788345,-0.37768369584863526,mp-1105134,AsPd3
0.0,11.097355461273025,241.9822163973307,12,False,False,False,True,False,False,False,-0.0754955122516621,-0.39599729286439606,mp-20257,AsPd3Pb2
0.0,10.562237728385528,78.70193182344974,5,False,False,False,False,True,False,False,0.24481106996757482,-0.16214398781620726,mp-1228793,AsPd4
0.0,11.07901789172406,181.96253330775718,12,False,False,True,False,False,False,False,0.062039228818989364,-0.23374202077074654,mp-2512,AsPd5
0.0,11.554926763365819,132.30385397023664,8,False,False,False,False,False,False,True,-0.03728669069831887,-0.27030632663518545,mp-1228756,AsPd6Pb
0.0,6.5848016072549544,215.26540509882292,12,True,False,False,False,False,False,False,-0.15145281545415779,-0.4352474061494659,mp-10848,AsPdS
0.0,7.463736844376878,231.64856152404863,12,True,False,False,False,False,False,False,-0.20630206404135543,-0.38311015343381,mp-10849,AsPdSe
0.0,16.952378926008883,64.66608953956714,4,True,False,False,False,False,False,False,0.48409740422729075,-0.006843310107916868,mp-1183186,AsPt3
0.0,16.999871631563895,128.97086252140284,8,False,True,False,False,False,False,False,0.3174205644882903,-0.009551886225957379,mp-1183320,AsPt3
0.0,9.203595328321905,218.00177616577534,12,True,False,False,False,False,False,False,0.11378365984212607,-0.48410290047267035,mp-1228738,AsPtS
0.0,9.437646963132053,125.15358872978564,8,False,False,False,True,False,False,False,-0.23339544082219219,-0.5652648408757035,mp-22079,AsRh
0.0,10.584531112330719,176.1693341427727,12,False,False,False,True,False,False,False,-0.25547537086990746,-0.4784380112198291,mp-1102364,AsRh2
0.0,10.082107316088884,46.237104501386106,3,True,False,False,False,False,False,False,-0.4568921463919241,-0.5087321499963807,mp-2302,AsRh2
0.0,6.394883628033193,62.793849736141084,6,False,False,False,True,False,False,False,-1.324755639355058,-1.393505781383595,mp-1228749,AsRhO4
0.0,6.694527832605507,119.96644771959616,12,False,False,False,False,True,False,False,-1.3224189543674885,-1.43273472695151,mp-760507,AsRhO4
1.2237,7.121892826956591,195.75359544951388,12,True,False,False,False,False,False,False,-0.39116222078577956,-0.7501319678235189,mp-1228745,AsRhS
0.9137000000000001,8.013444866116352,212.84479694964162,12,True,False,False,False,False,False,False,-0.289800854536342,-0.6441509429455367,mp-1228724,AsRhSe
0.0,9.580203687178624,122.01866963833027,8,False,False,False,True,False,False,False,-0.24175238905482105,-0.31048143798990774,mp-15650,AsRu
0.9146000000000001,7.088232343916291,194.96319849644567,12,False,False,True,False,False,False,False,-0.1586041971594147,-0.6067973766143006,mp-1214786,AsRuS
0.7335,7.983194080499203,212.12416364839436,12,False,False,True,False,False,False,False,-0.25981677077334897,-0.4860268490953648,mp-1214794,AsRuSe
0.0,4.112284037515803,259.20694283076966,12,False,False,False,True,False,False,False,0.5004444519540814,0.12605427717045944,mp-1103186,AsS
0.0,3.459326148395775,308.1330084792843,12,False,False,False,True,False,False,False,0.6554260818945626,0.12843415726949997,mp-1182330,AsS
2.0204,3.255901573227397,436.51302081987046,16,False,False,True,False,False,False,False,0.27814343597358077,-0.14487941046413969,mp-542846,AsS
2.608,2.508973246392811,176.74354700857842,10,False,False,True,False,False,False,False,-1.4466340409358749,-1.7186336979728716,mp-8500,AsS2NF6
0.0,4.877394910658751,79.59374402104513,3,True,False,False,False,False,False,False,0.3930036179064558,0.2568601870726415,mp-631257,AsSeBr
1.2345,4.697280997481949,397.04351418791094,12,False,False,True,False,False,False,False,-0.4740193168139768,-0.4850718895831722,mp-505373,AsSeI
0.0,18.530172833626356,35.30141737751474,2,False,True,False,False,False,False,False,0.19423550711363896,0.035945774797609076,mp-1008634,Au
0.0,16.730993180447804,39.097581250691825,2,False,False,True,False,False,False,False,0.38671196417584386,0.12301630996785555,mp-1238808,Au
0.0,17.96398177558859,18.207025965875985,1,True,False,False,False,False,False,False,0.17380777092732339,0.011788122303655802,mp-2647062,Au
0.0,18.02564918288778,18.14473805188449,1,True,False,False,False,False,False,False,0.2803114549361543,-0.0005962090610493471,mp-81,Au
0.020799999999999003,3.487182048832011,163.30993806688105,9,False,False,False,False,False,True,False,-0.3959141642228508,-0.7106598896409942,mp-1228770,Au(OF3)2
0.0,3.446763372619445,165.22500179346437,9,False,False,False,False,False,True,False,-0.6815801450489899,-0.9112432608852465,mp-3530,Au(OF3)2
0.18550000000000003,4.829429021243865,117.92107967993643,9,False,False,False,False,False,True,False,-0.7589198693457411,-0.9937198560463525,mp-990238,Au(OF3)2
0.8689999999999991,11.06406560179728,132.65363346808087,10,False,False,False,True,False,False,False,-0.1325551942049889,-0.480728972174396,mp-27253,Au2O3
0.7390000000000001,10.406696031567849,141.0330904790057,10,False,False,False,False,False,True,False,-0.06536448956458867,-0.40056650023782564,mp-658803,Au2O3
1.9091,9.644302410870814,146.69522383506134,6,True,False,False,False,False,False,False,0.018098312446072073,-0.1362078739930168,mp-947,Au2S
0.0,12.53995184875719,177.65550855827186,8,False,True,False,False,False,False,False,0.6826287432119396,0.19800487856994675,mp-1183348,Au3Br
0.0,14.059645013161123,79.22644991753992,4,False,False,False,False,True,False,False,0.5069777339073608,0.2727490332402613,mp-984614,Au3Br
0.0,13.659102334048981,76.14579011180525,4,False,False,False,False,True,False,False,0.5833313553167282,0.268450061066752,mp-1183201,Au3Cl
0.0,14.105062207153113,142.42698198817467,8,False,False,False,False,False,True,False,1.0992132984884866,0.7134220047972621,mp-971657,Au3N
0.0,14.254963033870544,141.39351666694836,8,False,True,False,False,False,False,False,0.5315182834395242,0.16192509530980326,mp-984358,Au3O
0.0,14.283076016506907,144.85076350374436,8,False,True,False,False,False,False,False,0.7584600531338638,0.3381315569889113,mp-984597,Au3S
1.6885,7.826089358503499,234.9855081665895,8,False,False,False,False,True,False,False,-0.05992246896972541,-0.39700837417039603,mp-505366,AuBr
1.9716,7.805345249695944,235.61002441714183,8,False,False,False,False,True,False,False,-0.17704132619606874,-0.3709845715351966,mp-570140,AuBr
0.0,5.0538949344254,234.44813059266104,6,False,False,False,False,True,False,False,0.016494012114249224,-0.35709867882772783,mp-1214775,AuBr2
0.0,4.3461876945182,177.54391266466385,6,False,False,True,False,False,False,False,1.226338009735233,1.048064438366317,mp-1182317,AuBr3N2
0.3426,5.053897537928377,152.6819969476618,6,False,False,True,False,False,False,False,1.2343578558664765,0.9331714619424832,mp-2901862,AuBr3N2
0.0,3.9709379575871973,443.75622027022774,12,False,False,True,False,False,False,False,0.7415661530699968,0.3846485570922824,mp-1214770,AuBr4N
1.9482,5.149145958463115,252.09615177026478,16,False,False,True,False,False,False,False,-1.027747714840881,-1.3060507010172762,mp-30159,AuBrF6
0.7129000000000001,5.771751796010985,177.72408510534459,8,False,False,False,True,False,False,False,0.20131611453416137,-0.05116780275739992,mp-997033,AuBrO2
0.0,5.476871494795151,187.29292961794218,8,False,False,True,False,False,False,False,-0.09930980807464485,-0.11127551917380792,mp-997040,AuBrO2
0.0,12.95637362834994,26.78333684716926,2,False,True,False,False,False,False,False,2.4651661400888547,2.3059251555936937,mp-1008661,AuC
0.0,11.553450581911113,60.071217121781395,4,False,True,False,False,False,False,False,2.1915540139211642,1.9083805533274503,mp-1183164,AuC
0.0,9.954094866193968,34.86152421396011,2,False,True,False,False,False,False,False,2.437750605049609,2.0941551946002317,mp-1228707,AuC
2.8504,4.240266569128748,86.5415298285101,3,False,True,False,False,False,False,False,1.6892513605277724,1.5442220330622092,mp-1214766,AuC2
3.6316,4.000904940845722,327.4772931594896,18,False,False,False,False,False,False,True,0.7236822016852581,0.23240490447921994,mp-1245660,AuC2N3
0.0,2.9101721806631753,480.49935637073634,20,False,False,True,False,False,False,False,0.7254112947678251,0.5078722190996162,mp-1214973,AuC2S2BrN4
3.7403,2.362820517001423,366.0486578345945,8,False,False,False,True,False,False,False,-0.1530953611709905,-0.6267259087445316,mp-1182487,AuCClO
3.0723,4.151050759618522,208.35863713502215,8,False,False,False,True,False,False,False,-0.2601354907192473,-0.6410374722093958,mp-561703,AuCClO
1.861,6.236492441303733,59.37209019892885,3,False,True,False,False,False,False,False,0.4536688260234275,0.1895163074143199,mp-29196,AuCN
1.9497,7.317217863458515,210.9773312035387,8,False,False,False,False,True,False,False,0.31229344139142673,-0.25257838845245073,mp-1120780,AuCl
0.0,7.02720627486064,109.84216460174652,4,False,True,False,False,False,False,False,0.212371458986525,0.08394482841040578,mp-1183171,AuCl
1.296,5.719088122615026,67.48309623709106,2,False,False,True,False,False,False,False,0.42980373479150025,-0.058256208289347224,mp-1228677,AuCl
1.674399999999999,7.497045788439865,205.9167224305555,8,False,False,False,False,True,False,False,0.18588532395644472,-0.2520756377916821,mp-32780,AuCl
0.897899999999999,5.568058520620383,319.5461139984167,12,False,False,False,False,False,True,False,-0.11779621886149778,-0.29572700515927225,mp-541656,AuCl2
1.3606,4.518647830236056,445.8713988311508,16,False,False,True,False,False,False,False,0.1856486518846493,-0.31641010875905334,mp-27647,AuCl3
0.0019000000000000002,1.3322420976106781,844.5237539937567,10,False,False,False,False,True,False,False,0.04409087681015805,-0.22812419125626812,mp-1214857,AuCl4
0.9762000000000001,7.066419817647017,350.25606761616274,18,False,False,False,False,False,False,True,-0.2553446311635765,-0.5809054110029994,mp-27265,AuClO
0.26180000000000003,4.830624575200211,181.78892804268742,8,False,False,True,False,False,False,False,0.17745218581568406,-0.1411894791856983,mp-997018,AuClO2
0.8831,4.86409921740735,180.5378599514629,8,False,False,True,False,False,False,False,0.12251901377941882,-0.14811256790840835,mp-997046,AuClO2
0.8999,5.181325699434015,169.48443588447535,8,False,False,False,True,False,False,False,0.29040003972396833,-0.15595956876304184,mp-997092,AuClO2
2.0942,7.791374513900841,276.1004553639798,8,False,False,False,False,True,False,False,0.15315690183283293,-0.2575683832846636,mp-27725,AuI
0.0,5.724678674125931,261.50999403483155,6,False,False,False,False,True,False,False,-0.16786804431906113,-0.16972382880856968,mp-1214760,AuI2
0.0,4.9178536772290045,799.1444318204444,20,False,False,True,False,False,False,False,1.4462970349317228,0.9327471267416482,mp-1214882,AuI3N
0.0,11.3292425490154,30.92257524429619,2,True,False,False,False,False,False,False,1.590922409294648,1.603234387673972,mp-1008558,AuN
0.0,13.760665771601042,25.458750397514386,2,True,False,False,False,False,False,False,1.9651393231512497,1.4944884644804397,mp-1008610,AuN
0.0,8.133820606952158,91.86040503712188,6,False,False,False,True,False,False,False,0.8996859221908055,0.4316523620668721,mp-1018648,AuN2
0.0,8.311571669745769,179.79176144835387,12,True,False,False,False,False,False,False,0.7700031621343864,0.6134735587864759,mp-1101868,AuN2
0.0,2.515263432025317,289.82652069176606,17,False,False,False,True,False,False,False,0.9168652003362224,0.6851854686070179,mp-1228842,AuN7O9
0.0,3.8788832031306573,543.3962325465467,20,False,False,True,False,False,False,False,0.8862099827271098,0.6997990322209419,mp-1189694,AuNCl3
0.0,3.227408772318965,363.0241860404745,12,False,False,True,False,False,False,False,0.9284049004566858,0.6442618010354945,mp-1214771,AuNCl4
0.9596,6.393328589412737,128.80724808090142,8,False,False,False,True,False,False,False,-0.2651469776278612,-0.5517054710104571,mp-997027,AuO2F
0.0,8.32725904758751,91.3423890468196,4,False,True,False,False,False,False,False,0.473537605856028,0.06064867645239573,mp-984598,AuS
0.0,5.518603388852944,157.12709264647452,6,True,False,False,False,False,False,False,1.0606327115533505,0.5939198209006763,mp-1214753,AuS2
0.0,10.558475426501298,86.79034213355689,4,False,True,False,False,False,False,False,0.6215124920872483,0.13154010608219155,mp-10678,AuSe
0.26279999999999903,9.172416104975438,99.90537762212159,4,False,False,True,False,False,False,False,0.07545572148200966,-0.21136885535701178,mp-2793,AuSe
0.0,9.285992897548432,197.3668739110774,8,False,False,True,False,False,False,False,0.1322098781570728,-0.0751447511934116,mp-570325,AuSe
0.0,1.9673841544249142,9.124851294870863,1,False,True,False,False,False,False,False,0.7547895520001915,0.7161636790519601,mp-1055985,B
0.0,2.299649687534881,117.09666876429608,15,False,False,False,False,False,False,True,0.39378652352557164,0.19137205928521,mp-1104251,B
0.0,1.777170495141998,121.21800062347896,12,False,False,True,False,False,False,False,0.9270613266312846,0.4870474192363942,mp-1182425,B
1.433399999999999,2.483309878652122,86.74916330018324,12,False,False,False,False,False,False,True,0.5423374235322347,0.005285694675080771,mp-160,B
0.0,2.272602955970606,94.79220891717327,12,False,False,False,False,False,True,False,0.4063833775513447,0.2715302468247861,mp-632401,B
1.7964,2.41220629118299,111.37946217150414,13,False,False,False,False,False,False,True,0.19246561516552885,-0.012727245941274737,mp-1228640,B12S
0.0,2.371397750903323,113.29615171319833,13,False,False,False,False,False,False,True,0.613297378186931,0.29903407310216085,mp-555170,B12S
0.0,5.27471232610937,98.71601027689839,13,True,False,False,False,False,False,False,0.550370881579353,0.19621584797571132,mp-1001602,B12W
0.0,2.454374562267944,111.33818748474974,15,False,False,False,False,False,False,True,0.08366254317842006,-0.11548530290598553,mp-576,B13C2
0.0,2.590681538850435,108.03893991912801,15,False,False,False,False,False,False,True,0.1223085177807254,-0.2842807775810776,mp-534,B13N2
0.0,2.45112555670806,116.19571388266361,14,False,False,False,False,False,False,True,0.18466048778630156,-0.03988851604659949,mp-1228630,B13P
0.0,2.085089984526969,161.26087037657814,15,False,False,False,False,False,False,True,0.951404389693654,0.6711312134208861,mp-13862,B13P2
2.2701000000000002,1.026360851419687,229.24580603311506,11,False,False,False,False,False,False,True,0.041447324018734896,-0.32504880529952884,mp-2455462,B2(CN2)3
1.517,1.831538171549607,128.4652017192029,11,False,False,True,False,False,False,False,0.19649987638072966,-0.07986570651185398,mp-989459,B2(CN2)3
2.7396000000000003,0.8944344583628551,263.05887308412264,11,False,False,False,False,False,False,True,-0.09293897221534934,-0.31775088233591803,mp-989460,B2(CN2)3
0.1452,1.313476625363438,179.13445593250356,11,False,False,True,False,False,False,False,2.5390123389565775,2.239472044598945,mp-989467,B2(CN2)3
3.404099999999999,2.036426851338695,546.165657369438,20,False,False,False,False,False,True,False,-0.20181096293635334,-0.46336660312261735,mp-29028,B2AsCl2
1.062299999999999,4.128914812768751,51.2840712082363,4,False,False,False,False,True,False,False,0.004851209773634804,-0.2803726619393041,mp-1008528,B2AsP
0.0,10.893524124301644,33.320241842302714,3,False,True,False,False,False,False,False,0.9298283611554887,0.6416276290801797,mp-10681,B2Au
0.0,3.111524574776568,25.42389844858113,4,False,False,False,False,False,False,True,0.13563049302362648,-0.4330925846947784,mp-1008525,B2CN
0.0,3.112862025604583,25.41297499172639,4,False,False,False,False,False,False,True,-0.013750922860895229,-0.36548715827790174,mp-1008526,B2CN
0.0,3.125595154250968,25.30944697101747,4,False,False,False,False,True,False,False,-0.1682058752564561,-0.3956001721278798,mp-1008527,B2CN
0.0,3.123714904844153,50.64936283827144,8,False,False,False,True,False,False,False,-0.10578797437547172,-0.4957119779407322,mp-1079333,B2CN
1.015399999999999,3.400426224391242,60.20760375229501,10,False,False,False,False,False,False,True,-0.4178452424634015,-0.6356144230436461,mp-1228638,B2CN2
0.0,8.939078500536343,46.30892378515411,4,True,False,False,False,False,False,False,2.366590831818553,1.8642436527081974,mp-631586,B2IrCl
0.0,7.127533196551009,54.77808054042982,6,False,False,False,False,False,False,True,-0.09319478783695398,-0.43818326307083866,mp-2331,B2Mo
0.0,7.328282782684588,26.6387501051256,3,False,True,False,False,False,False,False,-0.008631506600634348,-0.29629141785149493,mp-960,B2Mo
0.0,11.803797703921415,228.30355668940928,20,False,False,False,True,False,False,False,-0.0645132014617914,-0.4062642772167856,mp-20391,B2Mo2Ir