band_gap,density,volume,nsites,crystal_Cubic,crystal_Hexagonal,crystal_Monoclinic,crystal_Orthorhombic,crystal_Tetragonal,crystal_Triclinic,crystal_Trigonal,formation_energy_pbe,formation_energy_r2scan,material_id,formula
3.3056,3.266813167449202,20.83454669051882,2,True,False,False,False,False,False,False,-1.3712456861338853,-1.746806470075068,mp-1700,AlN
4.0467,3.200889713142437,42.52728307818043,4,False,True,False,False,False,False,False,-1.21207779713678,-1.6180830111399493,mp-661,AlN
0.0,2.38397446403449,81.48280833686206,6,False,False,False,False,True,False,False,-1.3381680738766775,-1.656913786206833,mp-1077280,AlNF4
0.0,2.457143558607135,158.11280838878685,12,False,False,False,False,True,False,False,-1.3249720537935994,-1.7047740584144169,mp-1102001,AlNF4
0.0,5.712371063731962,24.904996714431185,2,False,False,True,False,False,False,False,-0.052777027965168435,-0.43767754850778107,mp-1228854,AlNi
0.0,6.060902167304869,23.472839297968516,2,False,False,False,False,True,False,False,-0.29096482099740184,-0.693270735419526,mp-1228868,AlNi
0.0,6.083259310291866,23.386572118200654,2,True,False,False,False,False,False,False,-0.28849273601986847,-0.6340294636656741,mp-1487,AlNi
1.3131,7.063978968300273,136.6587614219507,12,False,False,False,False,False,True,False,-1.5665830404801344,-2.0090372591568055,mp-1047448,AlNi(WO4)2
0.0,7.148100740005991,67.07495457744089,6,False,False,False,False,False,False,True,-0.1605862562114445,-0.4853636198192693,mp-1025044,AlNi2
0.0,6.48053315730131,56.189745676612496,4,False,True,False,False,False,False,False,0.03363326877220281,-0.3420113755405137,mp-1228849,AlNi2As
0.0,7.6815551532728055,87.79262614116702,8,False,True,False,False,False,False,False,-0.11865915289308306,-0.39994019538198133,mp-1183232,AlNi3
0.0,7.71114783966961,43.72785438535495,4,True,False,False,False,False,False,False,0.08959780481742186,-0.46652154066627693,mp-2593,AlNi3
0.0,7.664689028215815,43.99290677491564,4,True,False,False,False,False,False,False,-0.1558285928088895,-0.3667244485689088,mp-672232,AlNi3
0.0,6.712361824755088,53.20574125296955,5,True,False,False,False,False,False,False,0.3949126334366243,-0.1712705924968393,mp-1207084,AlNi3C
0.0,7.432710255899237,72.56830524210673,5,False,True,False,False,False,False,False,0.08352353840335246,-0.22408920056229933,mp-1228852,AlNi3Sb
0.0,7.082197406310816,114.0726978331953,8,False,True,False,False,False,False,False,-0.25289415136681426,-0.3448374843721581,mp-1228845,AlNi4As3
0.0,8.17410822447198,135.86220688001487,12,False,False,False,True,False,False,False,-0.07422001526337965,-0.39617766422527145,mp-1228880,AlNi4Ge
0.0,8.541684485106286,87.82829194143989,8,False,False,False,False,True,False,False,-0.13902970862123315,-0.33929831493596485,mp-1228832,AlNi6Ge
0.0,8.632502143337234,93.40218570598879,8,False,False,False,False,True,False,False,0.24360157484830758,-0.18092720278507654,mp-1228861,AlNi6Pd
1.9441000000000002,3.6758528685386063,81.61494675825264,7,False,False,False,True,False,False,False,-2.9085240883239307,-3.14244864342047,mp-1263325,AlNiF5
0.0,5.849290790531293,44.94359227228675,3,True,False,False,False,False,False,False,-0.192903503315549,-0.44748647280717013,mp-1228803,AlNiGe
0.0,4.53535133823537,48.94206694176443,5,True,False,False,False,False,False,False,-1.3698872166418297,-1.424993634970999,mp-1183176,AlNiO3
0.0,4.979643714706197,178.30148622464873,20,False,False,False,True,False,False,False,-1.7809225133873605,-1.9837420990094132,mp-1376903,AlNiO3
0.0,4.749782638649847,93.4651059583781,10,False,True,False,False,False,False,False,-1.8992266299943434,-1.8988141392552096,mp-1400395,AlNiO3
0.0,4.529178568321998,49.00876957089664,5,True,False,False,False,False,False,False,-0.8320715345228575,-0.8598784007004914,mp-1416557,AlNiO3
0.0,1.144512812579929,690.3861454638482,4,False,False,False,True,False,False,False,2.4729990584216455,2.1005273419178865,mp-1096407,AlNiPt2
0.0,0.7252236924674751,667.4130939697285,4,False,False,False,True,False,False,False,2.9387717775476325,2.5118363361405294,mp-1096379,AlNiRh2
0.0,3.182441916967116,22.426655230978525,2,True,False,False,False,False,False,False,-1.1882970032322553,-1.630209750134819,mp-8023,AlO
0.0,3.34037363811511,58.63964155929608,6,False,False,False,True,False,False,False,-2.405249301469382,-2.5710421968590187,mp-1096799,AlO2
0.29390000000000005,3.6239183088267293,54.05152548171234,6,False,False,False,True,False,False,False,-2.3783894017546294,-2.673158223171997,mp-1182858,AlO2
0.13690000000000002,2.994620402438565,130.8201284234123,12,False,False,False,True,False,False,False,-2.326898204196917,-2.656675769931199,mp-1182869,AlO2
0.0,3.191860608761723,122.73613219543603,12,False,False,False,True,False,False,False,-2.373301370878882,-2.5150032193142473,mp-1182900,AlO2
1.0972,2.9549412500835013,132.5767900175049,12,False,False,False,True,False,False,False,-1.8946712897349278,-2.3742751790340995,mp-734251,AlO2
0.0,2.432532443798,102.3680366247112,8,False,False,False,False,False,False,True,-1.0550342714136491,-1.4666908001309478,mp-1182868,AlO3
0.0,2.106750624272028,118.19793355160706,8,False,False,False,False,False,True,False,-0.9961568773244495,-1.2907491746813429,mp-1182877,AlO3
0.0,2.1732546693779042,229.1618868292065,16,False,False,False,False,False,True,False,-1.1574969791508203,-1.509457830087863,mp-1182887,AlO3
0.0,2.221926169610995,224.14207429863265,16,False,False,True,False,False,False,False,-1.1306483513078662,-1.4717162920282922,mp-1205393,AlO3
0.0,2.44652419393054,101.7825905483695,8,False,False,False,False,False,False,True,-1.5939950915136434,-1.594138564630513,mp-1253219,AlO3
2.3217,3.036480749554839,82.00729424483205,8,False,False,True,False,False,False,False,-1.4926310786280894,-1.7406684956291005,mp-2646975,AlO3
0.0,2.4548634744323863,101.4368305573852,8,False,False,False,False,False,False,True,-1.3894833571996696,-1.6032452213770296,mp-35200,AlO3
0.0,2.969212059333338,55.91190406641605,5,False,False,False,False,True,False,False,-1.9825929954842374,-2.117005006739144,mp-1228805,AlOF3
0.0,13.386756274388759,26.943662689344276,2,True,False,False,False,False,False,False,-0.23229675393289323,-0.4320770887981931,mp-875,AlOs
1.6294,2.348192310671479,40.983457924417976,2,True,False,False,False,False,False,False,-0.16759580496066667,-0.7127837533147672,mp-1550,AlP
1.9532999999999991,2.347986071086355,81.97411556050663,4,False,True,False,False,False,False,False,-0.33668799979804453,-0.7342570842080192,mp-8880,AlP
2.3944,0.528386498678556,728.5351991659587,8,False,False,False,False,True,False,False,0.14532997754448645,-0.07448768811969284,mp-997569,AlP
3.8585000000000003,1.7546515479421392,471.71892497197797,16,False,False,False,False,False,True,False,-1.0689520808769333,-1.4655396921057533,mp-567975,AlPNCl5
0.491799999999999,6.9967727327971385,271.2521356624077,12,False,False,False,False,False,False,True,0.21798731116498626,-0.2564967769493497,mp-1172905,AgBiS2
0.23040000000000002,6.940959706136141,182.2888694424489,8,False,False,False,False,True,False,False,0.17729903686399529,-0.2802154189514591,mp-1173060,AgBiS2
0.5212,6.992709640165616,90.46991529646746,4,False,False,False,False,False,False,True,0.01912014616510508,-0.28846772805292153,mp-29678,AgBiS2
0.316899999999999,6.932464224774485,182.51225778497385,8,False,False,True,False,False,False,False,-0.05903227472875612,-0.26045582101648745,mp-675977,AgBiS2
0.0,6.993350485012286,90.46162496708664,4,False,False,False,False,True,False,False,0.20524639771911946,-0.214540625107265,mp-985828,AgBiS2
1.0752,5.553841211740978,251.0431321841321,10,False,False,False,True,False,False,False,-0.5865704800200717,-0.9867672542698571,mp-556094,AgBiSCl2
0.26180000000000003,4.298290935817175,183.4151805140911,4,False,False,True,False,False,False,False,0.7169819130562419,0.29239216516061206,mp-1183002,AgBiSe2
0.0,7.72822204546625,102.01205442298152,4,False,False,False,False,True,False,False,0.1824594728043774,-0.21464641660357953,mp-1229087,AgBiSe2
0.23409999999999903,7.9436345532406545,297.73718917118396,12,False,False,False,False,False,False,True,0.13712429484998323,-0.30530139836481995,mp-27916,AgBiSe2
0.021099999999999,7.721549288922001,204.2004210284728,8,False,False,False,False,True,False,False,-0.05069850793200123,-0.28642123539109104,mp-33618,AgBiSe2
0.0,7.407995033474446,95.91000333507886,4,False,False,False,False,True,False,False,0.2898157138902908,-0.17116875699046658,mp-1229089,AgBiSeS
0.0,7.942302352568839,358.8036589868429,12,False,False,False,False,False,False,True,0.14151912424552293,-0.21442402989469234,mp-1182952,AgBiTe2
0.0,7.832653923155901,121.2755035027902,4,False,False,False,False,True,False,False,0.5135395327687848,-0.04638838960446824,mp-1229085,AgBiTe2
0.0,7.915842621900204,120.00100225158475,4,False,False,False,False,False,False,True,0.010481634161559797,-0.23856928841985287,mp-29656,AgBiTe2
0.0,7.862872724998528,362.4282427745952,12,False,False,False,False,False,False,True,0.45153044901644834,-0.09582101952163227,mp-570549,AgBiTe2
0.0,7.8561043666591335,191.67992907302653,6,False,False,False,True,False,False,False,0.06888643543606815,-0.2465372616075303,mp-1229113,AgBiTe3Pb
0.0,7.822255408644641,111.11123105669704,4,False,False,False,False,True,False,False,0.010897094692207718,-0.21525691680385148,mp-1229083,AgBiTeSe
0.12139999999999901,6.660423189366615,46.814303664551375,2,True,False,False,False,False,False,False,-0.1800593184414803,-0.3947446251975017,mp-1060967,AgBr
1.244199999999999,6.4448617632691825,96.76020531533175,4,False,False,False,True,False,False,False,-0.40740233956248106,-0.6209646832405282,mp-2034510,AgBr
0.730399999999999,6.4443509018534755,48.38393788143195,2,True,False,False,False,False,False,False,-0.2959961463730446,-0.726125603513954,mp-23231,AgBr
0.6990000000000001,6.245163623562608,99.85425283174813,4,False,False,True,False,False,False,False,-0.20915132512800708,-0.5724943041086076,mp-570301,AgBr
1.1708,5.1336931028898825,60.73660179372757,2,True,False,False,False,False,False,False,-0.41517066892411897,-0.7039137929432344,mp-866291,AgBr
0.0,3.090846976931511,118.07065633771587,4,False,False,False,False,False,True,False,0.06942954949418756,-0.25588720577236124,mp-1096805,AgBrO2
0.0,4.379369070653832,166.66251476780144,8,False,False,True,False,False,False,False,0.4177937296251135,-0.15467183321963768,mp-997047,AgBrO2
0.2785,3.739293607820342,195.19105450426153,8,False,False,True,False,False,False,False,0.36014650384844066,-0.21643843266842763,mp-997048,AgBrO2
2.383,5.067049942399514,77.26506831359747,5,False,False,False,False,False,False,True,0.08041275411777277,-0.3202521952656012,mp-1178562,AgBrO3
0.8743000000000001,4.755707016479074,175.81974130929234,12,False,False,False,False,True,False,False,0.12372779478078601,-0.18791085881398448,mp-756342,AgBrO4
0.0,7.829370446328863,25.425236687373022,2,True,False,False,False,False,False,False,2.554469681924406,2.2985021730615736,mp-1008653,AgC
0.0,6.576176098332642,30.270417600511994,2,True,False,False,False,False,False,False,2.6507100738262293,2.2037319105004864,mp-1008912,AgC
0.0,6.542021510073919,60.85690681527137,4,False,True,False,False,False,False,False,2.392390528136906,2.2142701155674867,mp-1183141,AgC
0.5987,3.740689368808589,231.60211055108036,18,False,False,False,False,False,False,True,1.1952150482753852,0.9787444793842758,mp-1182983,AgC2N3
2.3612,3.028388787187166,286.07672713540336,18,False,False,False,False,False,False,True,0.8231195611405837,0.8291382425283541,mp-1182994,AgC2N3
3.577499999999999,3.208496796079082,270.0178955424783,18,False,False,False,False,False,False,True,0.5916747961685679,0.22868839104906752,mp-616521,AgC2N3
3.4634,2.379490463303198,276.25437387872506,16,False,False,False,True,False,False,False,0.7465955282470762,0.31234455621586577,mp-29672,AgC4N3
0.0,2.064907119133847,387.32702145063115,16,False,False,False,True,False,False,False,1.981631731599102,1.8169850059982828,mp-1189890,AgC4NCl2
0.0,1.755440770114115,170.20499046953026,7,False,False,False,True,False,False,False,1.925093847112548,1.436829104371519,mp-1214982,AgC6
0.000399999999999,1.365817579481941,515.1198707921563,18,False,False,False,False,True,False,False,1.0003952229504418,0.9046284820336601,mp-1183000,AgC8S4N4Cl
0.0,1.476908136303925,476.3734167171056,18,False,False,False,False,True,False,False,0.930262020924874,0.8255461824882244,mp-1183010,AgC8S4N4Cl
3.6601,3.097364624614528,71.77788094059132,3,False,False,False,False,False,False,True,0.6778610697284368,0.3427224167192999,mp-9519,AgCN
0.0,5.760814746984949,86.40788115174267,8,False,False,False,True,False,False,False,2.5174251874751556,2.055549639651988,mp-1182972,AgCNO
1.301899999999999,3.988750444060604,124.79592367978157,8,False,False,False,True,False,False,False,0.7244053095520123,0.18174169497179934,mp-545730,AgCNO
0.0,4.667509259968311,53.323921632462024,4,False,False,False,True,False,False,False,2.4218325264029916,2.234195208977273,mp-561891,AgCNO
2.3532,3.42158560258072,145.48219855123108,8,False,False,False,True,False,False,False,0.5426008920980263,0.1071812783174541,mp-6070,AgCNO
3.0696,3.527186736876574,141.12657852515073,8,False,False,True,False,False,False,False,-0.21525432334177313,-0.5417993352262098,mp-6781,AgCNO
1.976,4.676658897565316,215.7085729101606,16,False,False,True,False,False,False,False,-0.805998667907789,-1.03880967941608,mp-1182953,AgCO2
2.3498,4.488740387621706,224.73908706400258,16,False,False,True,False,False,False,False,-0.672508814168665,-1.0956638405912713,mp-5282,AgCO2
0.0,4.91885954703674,113.34598203986192,10,False,False,False,False,False,False,True,-0.835779699571318,-1.2130161574575635,mp-753176,AgCO3
2.7068,2.9604686901149773,288.23438780656653,18,False,False,False,False,False,False,True,-1.5181819290106005,-1.5377268796846049,mp-1188917,AgCS(OF)3
2.279699999999999,3.191617649846176,345.3639936337502,16,False,False,False,True,False,False,False,0.6319065368171474,0.07707807687285648,mp-562550,AgCSN
2.692199999999999,3.381044566377333,326.01457805801175,16,False,False,True,False,False,False,False,0.6293974093553807,0.12130893887206913,mp-6050,AgCSN
0.7131999999999991,5.58600467295847,85.20954263575543,4,False,False,False,True,False,False,False,-0.3619044089764285,-0.5840136402907755,mp-1536202,AgCl
0.9522,5.582622712233539,42.630581348524416,2,True,False,False,False,False,False,False,-0.20906940373438768,-0.6154757165109627,mp-22922,AgCl
0.8720000000000001,5.433843026115748,87.59563002765415,4,False,False,True,False,False,False,False,-0.1830653558075883,-0.5467685844218515,mp-570687,AgCl
0.44379999999999903,5.833978324235664,81.58770514567247,4,False,False,False,True,False,False,False,-0.200794166376413,-0.4645485347024664,mp-570858,AgCl
0.6022000000000001,5.877178819441274,40.49399533067414,2,True,False,False,False,False,False,False,-0.21425563682681206,-0.4869121960851716,mp-726265,AgCl
0.9151,3.067992978740274,189.78251330669534,8,False,False,False,True,False,False,False,0.14882841689262627,-0.05139649624815011,mp-1079156,AgClO2
0.0,4.128427688602729,141.03466555076992,8,False,False,False,True,False,False,False,0.34554212768461623,0.06859152638557621,mp-1101631,AgClO2
0.9630000000000001,4.277218446917697,272.25704066258913,16,False,False,False,True,False,False,False,0.24713382809723866,-0.22508317874198058,mp-22959,AgClO2
0.911899999999999,3.535790270847355,164.67362985675246,8,False,False,False,True,False,False,False,0.2894835077724988,-0.09545035699213822,mp-552169,AgClO2
0.0,3.787092204470227,153.74630108697724,8,False,False,False,False,False,True,False,0.08351118852041808,-0.19987315257004074,mp-675942,AgClO2
0.0,2.686773664901228,108.35512978240182,4,False,False,False,False,False,True,False,0.14381712368058666,-0.26495408062846015,mp-996984,AgClO2
0.0,3.977995135180054,146.36805690469245,8,False,False,True,False,False,False,False,-0.3904699622611763,-0.2858914884771428,mp-997013,AgClO2
0.864699999999999,3.140544726177673,185.39822517391005,8,False,False,True,False,False,False,False,0.2159434821391495,-0.3220690240660226,mp-997016,AgClO2
0.0,3.591680791331609,162.11112627766548,8,False,False,True,False,False,False,False,-0.20352020348338096,-0.20672537005125408,mp-997017,AgClO2
2.7117,4.134260284941861,76.84405818753127,5,False,False,False,False,False,False,True,-0.10707796054380184,-0.3239602447380707,mp-1178561,AgClO3
2.3983,4.138469148530601,307.06362811598757,20,False,False,False,False,True,False,False,-0.2751951515272546,-0.40569483802780065,mp-27941,AgClO3
3.1001,4.366022674178715,291.05972332883755,20,True,False,False,False,False,False,False,-0.3081474626914689,-0.40707300068716196,mp-775761,AgClO3
3.113099999999999,4.111923887247284,309.0459323760985,20,False,False,True,False,False,False,False,0.07719956977344589,-0.36469490795186515,mp-776199,AgClO3
2.8481,4.034353320631651,170.66475803201675,12,False,False,True,False,False,False,False,-0.1405168721412277,-0.3636315022411015,mp-1101933,AgClO4
2.3558,4.229779246078329,81.38981885634249,6,False,False,False,False,True,False,False,-0.06209168801816866,-0.3869467436349366,mp-22993,AgClO4
3.2945,4.167704129930956,165.20412961576292,12,False,False,True,False,False,False,False,-0.11341843127631966,-0.41530481047065754,mp-2903321,AgClO4
2.3744,3.476756322776121,99.01785879711768,6,True,False,False,False,False,False,False,0.07408191047235717,-0.25811470145389265,mp-551758,AgClO4
0.0,7.067923081136195,29.806061616982827,2,True,False,False,False,False,False,False,-0.8110922688409606,-1.1129919807220185,mp-7592,AgF
0.0,5.836099364305911,166.01125269282707,12,False,False,False,True,False,False,False,-1.2040709877949505,-1.3058005958584888,mp-2284,AgF2
0.0,5.487610104183603,88.27687717551264,6,False,False,True,False,False,False,False,-0.8277150037495938,-1.3152568593280258,mp-7715,AgF2
0.5654,6.474443201069483,151.4071490474872,12,False,False,False,True,False,False,False,0.24497226058135813,0.027644423684606265,mp-1245460,AgGe2N3
0.746599999999999,6.955091854757551,211.4156808885141,18,False,False,False,False,False,False,True,0.18625024381214939,0.09477888108627847,mp-1246590,AgGe2N3
0.0,6.860004287321993,78.86059700240848,4,False,False,False,False,True,False,False,0.5210663079384471,0.2661351002874792,mp-1183245,AgGe3
0.0131,1.07527706976367,887.1037149788972,4,False,False,False,True,False,False,False,1.7831129579701357,1.2335377205255054,mp-1096274,AgGeAu2
0.0,7.308731531874199,175.46346933076734,6,False,False,False,True,False,False,False,0.3247184125670339,-0.13480189670696677,mp-1229030,AgGeBiTe3
0.0,6.66947885108977,113.78514352920584,10,False,False,False,True,False,False,False,-1.0622108424945118,-1.2461698802428243,mp-759939,AgGeO3
0.0,4.985150397663503,152.22963156576708,10,False,False,False,True,False,False,False,-1.0882488289810974,-1.295920001473681,mp-779664,AgGeO3
0.0,5.193309183747746,292.25589368380406,20,False,False,False,True,False,False,False,-1.0797010765159403,-1.2738447937690052,mp-779706,AgGeO3
0.0,4.984913262721486,152.23687320929267,10,False,False,False,True,False,False,False,-0.7237980197992069,-1.37199706792,mp-891854,AgGeO3
0.8512000000000001,7.757016317640359,46.61407852899997,4,False,True,False,False,False,False,False,0.4781887145014,0.12303600916399378,mp-1096804,AgH
2.4608,3.695960547725161,184.02951715231907,12,False,False,True,False,False,False,False,-0.16335295715744957,-0.5666644329922329,mp-1102571,AgH3BrN
1.7101000000000002,3.697259817031458,196.72060021601533,11,False,False,False,False,True,False,False,-0.14206842750128368,-0.617481791921972,mp-643431,AgH4WS4N
0.0,4.86835981069183,96.10150049352579,8,False,False,True,False,False,False,False,-0.06428152520852297,-0.4276437085649972,mp-2016808,AgHO2
0.0,4.216910870486556,110.94772859068745,8,False,False,True,False,False,False,False,-0.4671704426022715,-0.6911266005359191,mp-996958,AgHO2
0.0,12.438795681727514,41.17817388588059,2,True,False,False,False,False,False,False,0.35590647680391824,0.07347206382361221,mp-758433,AgHg