band_gap,density,volume,nsites,crystal_Cubic,crystal_Hexagonal,crystal_Monoclinic,crystal_Orthorhombic,crystal_Tetragonal,crystal_Triclinic,crystal_Trigonal,formation_energy_pbe,formation_energy_r2scan,material_id,formula
0.36599999999999905,0.348018271341733,3513.5878106951063,7,False,False,True,False,False,False,False,0.8461556937243196,0.7256056160462887,mp-1215096,Ag3SI3
0.0,8.989131441280312,82.27105388452856,4,False,True,False,False,False,False,False,0.15724773938965766,0.06543617672853681,mp-1229105,Ag3Sb
0.0,9.488630316469115,155.88030991092086,8,False,False,False,True,False,False,False,0.5326599182847784,0.0637460504977106,mp-16240,Ag3Sb
0.0,9.121196488250495,81.0798581231454,4,False,False,False,True,False,False,False,0.4007465367969397,0.07146466716370713,mp-2273,Ag3Sb
1.8371,4.899352425236151,367.1019329249105,14,False,False,False,False,False,False,True,0.010193449025448928,-0.12207530549217568,mp-1104271,Ag3SbS3
0.0,5.187667643452521,346.69949368374563,14,False,False,True,False,False,False,False,0.5796178058373114,0.04167809114395654,mp-1183018,Ag3SbS3
0.9521000000000001,5.644650129279103,318.631217912923,14,False,False,False,False,False,False,True,0.11935424965285876,-0.17793730134833283,mp-4515,Ag3SbS3
0.0,7.401268060763414,214.43412719868712,8,True,False,False,False,False,False,False,0.28333266865124196,-0.19061988277216366,mp-1214902,Ag3SbTe4
0.1705,0.33431388770685505,6014.868363269642,10,False,False,False,True,False,False,False,1.1649754537115173,0.8937238349558915,mp-1215084,Ag3SbTe6
0.0,8.76189601499747,152.58666480085938,8,False,True,False,False,False,False,False,0.5797146916750091,-0.05096246868555091,mp-1183249,Ag3Se
0.5603,6.044278023130849,255.26152203741154,16,False,False,False,False,False,False,True,0.24281885794851266,-0.29813210903164955,mp-6476,Ag3SeNO3
0.0,9.054311103109846,81.11944295522198,4,False,True,False,False,False,False,False,0.36332180272813897,0.09482550611649955,mp-1229107,Ag3Sn
0.0,9.740192817095668,150.81440107395323,8,False,False,False,True,False,False,False,0.4589131238931533,0.011251835936745069,mp-611,Ag3Sn
0.0,12.210690699583381,69.00769196159888,4,True,False,False,False,False,False,False,1.2644667349377743,0.8704129170334532,mp-1183177,Ag3W
0.0,8.13036619981891,141.44977794242845,7,False,False,True,False,False,False,False,0.5737770588977094,0.07604953716065734,mp-675633,Ag4AuS2
1.599399999999999,6.10800835172548,420.9400424559624,16,False,False,False,False,False,True,False,-0.4417931635661827,-0.6005415157728258,mp-1229155,Ag4Hg4S4BrCl3
0.0,6.274915504545333,156.2495072956407,6,False,False,True,False,False,False,False,0.40319338747198885,0.00672706396733879,mp-685999,Ag4SI
0.403499999999999,6.163396721994734,533.8015465438308,18,False,False,False,False,False,True,False,0.00504011829074813,-0.40638001300982446,mp-1229187,Ag4Sn2(HgSe3)3
0.0,8.774490532310642,198.65882309090384,13,False,False,False,False,False,False,True,-0.7660702336044902,-0.7726958200725665,mp-22286,Ag5(PbO3)2
0.0,8.378068551580496,208.0586893792215,13,False,False,False,False,False,False,True,-0.6795902329255064,-0.7760268182507332,mp-555565,Ag5(PbO3)2
0.9308999999999991,7.346254701665375,284.4700700131552,12,False,False,False,False,False,True,False,-0.10284615190707208,-0.11062751102377313,mp-1247859,Ag5Au3S4
1.0997,6.420473009132528,325.4884159383098,12,False,False,False,False,False,True,False,0.21723868375692834,-0.06902751592323773,mp-1247860,Ag5Au3S4
0.0,5.78595760142882,389.401273515052,20,True,False,False,False,False,False,False,0.3025410036193963,-0.07643131800286541,mp-1229225,Ag5BS4
1.2689,4.792626948079725,266.6080377505904,12,False,False,False,True,False,False,False,-0.018171400766942902,-0.5172435548054533,mp-559847,Ag5P(S2Cl)2
0.5945,5.893921663282094,444.7852730436628,20,False,False,False,True,False,False,False,0.14613456343796424,-0.12079953335247257,mp-4004,Ag5SbS4
0.0,6.778780237694461,213.88404460365646,16,False,False,False,False,False,True,False,0.15452766066381973,-0.40788408995095093,mp-1215150,Ag6H3IO6
0.0,6.6492477181885725,259.17312062628446,19,False,False,False,True,False,False,False,-0.4448765199164427,-0.5447477608450194,mp-1229201,Ag6HgNO11
1.5871,5.759769569276189,300.85017134687985,19,False,False,False,False,False,False,True,-1.3143196653769562,-1.407996824349446,mp-553919,Ag6Mo2ClO7F3
0.5861000000000001,6.288392755380496,242.44988095539424,10,False,False,False,True,False,False,False,0.007156879665509125,-0.29628509868182423,mp-1229171,Ag6S2IBr
1.441999999999999,5.317828429409702,323.5878658384085,14,False,False,False,False,False,False,True,0.17911873792125108,-0.14859396410226158,mp-1229145,Ag6SbAsS6
0.0,9.601897020221978,153.5140386429762,8,False,False,False,True,False,False,False,0.32445510778588704,0.015364458623155067,mp-1229118,Ag6SnSb
0.0,6.2090825500178575,286.964384402495,11,False,False,False,False,False,True,False,-0.14077920015749448,-0.11144849129548828,mp-1247930,Ag7(SI)2
0.0,5.820263733390066,306.13484771287693,11,False,False,False,False,False,True,False,0.17232004437611373,-0.12002704287690234,mp-675987,Ag7(SI)2
0.0,6.113913263480376,256.6830836624116,19,False,False,False,False,False,False,True,-0.4024736067423941,-0.49708147082001924,mp-34787,Ag7NO11
0.0,6.506194794075854,241.20675131700725,19,False,False,False,True,False,False,False,-0.11135732671057331,-0.5462389507295491,mp-37695,Ag7NO11
0.0,6.859210232795932,209.42643792072826,14,True,False,False,False,False,False,False,0.2018943457240522,-0.15053910770145798,mp-696470,Ag7NO6
0.0,5.9228009536104285,251.5085742633522,16,True,False,False,False,False,False,False,0.6169962247592307,0.3682441135813123,mp-690667,Ag7NO8
0.09469999999999901,0.11388908330423901,18368.447531106434,14,False,False,False,False,False,True,False,2.652893968302991,2.4243671211586357,mp-1247841,Ag7PSe6
0.0,6.5085452923163345,434.0271168846716,15,False,False,False,False,False,True,False,0.13485500754999727,-0.0551771614781142,mp-676555,Ag8GeTe6
0.10110000000000001,6.848997970441339,412.45232668032594,15,False,False,False,False,False,True,False,0.2465159112423652,-0.007902388670254522,mp-676799,Ag8GeTe6
0.052999999999999006,6.849807337833671,412.4035916652164,15,False,False,False,False,False,True,False,0.38422842257519374,-0.035720704917056666,mp-685969,Ag8GeTe6
0.0,7.81870529998439,190.08262996228714,9,True,False,False,False,False,False,False,0.3813461938482754,0.24320523025758944,mp-28963,Ag8S
0.0,6.496548997931401,410.6756223143563,17,False,False,True,False,False,False,False,0.16922050585709064,-0.1607562846558046,mp-676430,Ag9(SI)4
0.0,6.498901538499684,350.30354029860575,20,False,False,True,False,False,False,False,-0.6323309517558641,-0.8812598046247432,mp-561034,Ag9Ge2IO8
0.0,6.538585875270558,437.0462629278555,16,False,False,False,False,False,True,False,-0.1404919202560167,-0.2691400994791983,mp-676260,Ag9Te4Br3
0.0,7.941189801728027,76.44436449811381,4,False,False,False,True,False,False,False,0.5078974501734813,0.25191775109447656,mp-1183178,AgAs
1.0937000000000001,4.233172720720414,394.1556431670705,12,False,False,False,True,False,False,False,-0.5900732690573502,-0.7418835793110125,mp-2646989,AgAsBr4
1.6805999999999992,3.433120375475912,143.5472964175908,8,True,False,False,False,False,False,False,-1.98473942569791,-2.1676234254803446,mp-37153,AgAsF6
2.3783,5.066045767798683,140.80601625330362,8,False,False,True,False,False,False,False,-1.0376009174299932,-1.191108038914015,mp-997022,AgAsO2
0.2921,6.425733028349928,119.28055162319482,10,False,False,False,False,False,False,True,-0.6750024888958754,-1.2944466836791642,mp-1178563,AgAsO3
0.7378,5.030528133497361,304.7254522248717,20,False,False,True,False,False,False,False,-0.9271538615375737,-1.250701086030524,mp-775767,AgAsO3
0.0,10.185426461398478,62.755445068596806,4,True,False,False,False,False,False,False,0.6884461402594472,0.47753563521641457,mp-631567,AgAsRu2
0.0,4.876732488134934,292.6342914355552,12,False,False,False,True,False,False,False,0.21951840421430227,-0.14427531167863858,mp-984714,AgAsS
0.0,5.459497523124781,318.45111513190255,12,False,False,False,True,False,False,False,0.0642078887095705,-0.18225041182394525,mp-985442,AgAsSe
0.0,6.446551481834722,87.76195069064333,4,False,False,False,False,False,False,True,-0.03439706839352449,-0.30901726047463596,mp-4483,AgAsSe2
0.0,14.444606395462564,35.04353313091967,2,False,True,False,False,False,False,False,0.34527463250651075,-0.03627522344929662,mp-1183227,AgAu
0.0,14.53896486670291,34.81609918060682,2,False,False,False,False,False,False,True,0.35140015900709576,-0.07933653849241042,mp-1229092,AgAu
0.0,16.57513603963357,70.00433693487003,4,False,False,False,False,True,False,False,0.15728908410841885,-0.1177538427664575,mp-1183224,AgAu3
0.0,16.57198585092049,70.0176441434365,4,True,False,False,False,False,False,False,0.148742532653295,-0.056783010498260345,mp-863750,AgAu3
0.0,16.504009317016813,140.6120641077718,8,False,True,False,False,False,False,False,0.20503773417725038,-0.1110721605125963,mp-985287,AgAu3
0.8406,4.7987161874327935,309.1136795451723,12,False,False,True,False,False,False,False,-0.4997245247103388,-0.45649537138256513,mp-570340,AgAuCl4
1.0268,7.222443125335128,175.11537153700115,12,False,False,False,False,True,False,False,-1.181782381829782,-1.2955531736649835,mp-16060,AgAuF4
0.0,8.947457572129613,125.02440961755349,8,False,False,False,False,True,False,False,0.06973608095001263,-0.3756767791897418,mp-996977,AgAuO2
0.0,9.489890017240551,117.87814173834778,8,False,False,False,True,False,False,False,0.0907038041085255,-0.4287004712514254,mp-996980,AgAuO2
0.6522999999999991,9.66719256736608,115.7161805496547,8,False,False,True,False,False,False,False,-0.2069001651001228,-0.4663721454285216,mp-996983,AgAuO2
0.0,7.963340122990181,294.29506712515894,20,False,False,False,True,False,False,False,0.388948073625032,0.04037572949630706,mp-752678,AgAuO3
0.24230000000000002,8.569172736555055,273.488677155319,20,True,False,False,False,False,False,False,-0.010156319151801645,-0.3822333216573041,mp-776165,AgAuO3
0.2197,5.935769207810506,206.4367368991897,8,False,False,False,True,False,False,False,0.8046853773620317,0.05915763745384879,mp-37920,AgAuS2
4.2798,1.90557316828904,194.10594701560453,10,True,False,False,False,False,False,False,0.6220611244235196,0.1601192007198944,mp-10413,AgB(CN)4
0.0,6.668703845978472,32.243677453380414,3,False,True,False,False,False,False,False,0.8046342262778842,0.5317424674400092,mp-12062,AgB2
0.0,4.053972218692769,175.0428382019538,14,False,False,False,False,True,False,False,-2.1198012407329205,-2.2382995696396537,mp-5160,AgBF5
0.0,5.035218550839825,109.9353807286683,10,False,False,False,False,False,False,True,-1.4420966192053017,-1.479154908083272,mp-780275,AgBO3
0.0,6.548744367105115,42.26372548752631,5,True,False,False,False,False,False,False,-0.21609444378658257,-0.5379522792819154,mp-985292,AgBO3
1.183799999999999,4.147865928609672,457.3324642244417,20,False,False,False,False,False,True,False,-0.15227782257538353,-0.3884718338695869,mp-556434,AgBi(PS3)2
1.2778,4.996191648875751,566.7127483749094,20,False,False,False,False,False,False,True,-0.3792191209411392,-0.49468245335987193,mp-569126,AgBi(PSe3)2
0.3971,5.66084614732116,221.12077468188747,15,False,False,False,False,False,True,False,-1.581895082969713,-1.7885904183412058,mp-28965,AgBi2F12
0.7834000000000001,6.488452106603947,336.52594669837146,14,False,False,True,False,False,False,False,-0.5695742425659682,-0.7045408707955094,mp-558368,AgBi2S3Cl
0.549999999999999,7.1483558222552475,370.82070770714455,14,False,False,True,False,False,False,False,0.05721407435313863,-0.5297632826479638,mp-569939,AgBi2Se3Cl
0.5262,6.622904931039951,448.86817991033735,18,False,False,True,False,False,False,False,0.06004368586880654,-0.2998519774062584,mp-23474,AgBi3S5
1.0457,5.41146151853963,505.9848598947998,12,False,False,False,True,False,False,False,-0.3264652023086037,-0.5797774844535039,mp-35909,AgBiI4
0.7818,7.638430183940319,151.67376595252594,8,False,True,False,False,False,False,False,-0.5829611533331621,-1.0868892245548916,mp-996965,AgBiO2
1.6897,7.696995053708715,150.51971111835897,8,False,False,True,False,False,False,False,-0.8022120817695233,-1.1116562220781538,mp-996968,AgBiO2
1.4247,8.144979169187188,142.24093737974394,8,False,False,True,False,False,False,False,-0.9767759943659046,-1.1539496332636996,mp-996969,AgBiO2
1.2491,7.582117351272498,152.80025595610647,8,False,False,True,False,False,False,False,-0.5954538113262173,-1.152479976717333,mp-996970,AgBiO2
0.956399999999999,7.6398649023424134,75.82264128835956,4,False,False,False,False,False,False,True,-0.7241765113639671,-1.1026886023611,mp-996982,AgBiO2
0.0,7.836022365054108,154.63007543874295,10,False,False,False,False,False,False,True,-0.8585979344823015,-0.9952784351290506,mp-23548,AgBiO3
0.0,8.1176254841836,149.26590686018258,10,False,False,False,True,False,False,False,-0.7535201340458751,-1.0622221495977826,mp-775774,AgBiO3
0.068299999999999,7.057910390573253,145.92686384687448,6,False,False,False,True,False,False,False,-0.38274864703548966,-0.5413806165104291,mp-1229121,AgBiPbS3
0.0,12.085305327232541,72.78000758910709,4,True,False,False,False,False,False,False,-0.09562781464465142,-0.19286562646474348,mp-1183166,AgBiPd2
0.41199999999999903,2.919965406880224,281.6490478722815,14,False,True,False,False,False,False,False,-0.6385295751916809,-1.1346904340577488,mp-1096818,Al2ZnS4
0.0,2.683866749848503,306.42559907798574,14,False,False,False,False,False,False,True,-0.4582544105366223,-1.070478456930527,mp-1096822,Al2ZnS4
1.753899999999999,2.730521370132595,150.5949533418004,7,False,False,True,False,False,False,False,-1.040248799108584,-1.1428718290383624,mp-1228438,Al2ZnS4
1.5436,2.717156408200313,151.33568943359572,7,False,False,True,False,False,False,False,-0.6616657418178413,-0.9894804976012213,mp-1247884,Al2ZnS4
2.4934,3.281121926450817,250.64764281935976,14,True,False,False,False,False,False,False,-0.988099853403987,-1.1738068742997,mp-4842,Al2ZnS4
1.378899999999999,4.90197375978992,294.85537534893155,14,True,False,False,False,False,False,False,-0.8428385203325612,-1.1098341598408537,mp-1104860,Al2ZnSe4
0.8803999999999991,4.101047580833755,176.22001261926613,7,False,False,True,False,False,False,False,-0.8413140656894013,-1.0378738883710419,mp-1228454,Al2ZnSe4
2.1529,4.2751604049269805,169.04316750638472,7,False,False,False,False,True,False,False,-0.9303725653626853,-1.147193069578864,mp-7907,Al2ZnSe4
1.625099999999999,4.827294159882309,216.63505529356985,7,False,False,False,False,True,False,False,-0.39765973961779905,-0.6724572521929109,mp-7908,Al2ZnTe4
0.0,7.982020068828194,210.88361067813202,18,False,False,False,False,True,False,False,-0.47152221912832276,-0.6610134412212034,mp-541849,Al3(BRu2)2
0.0,3.172396419727625,155.51717339939992,15,False,False,False,False,False,True,False,-2.4721490121330243,-2.8155266216621753,mp-1193561,Al3(SiO5)2
0.0,4.6112324372586855,67.99289803249208,4,True,False,False,False,False,False,False,0.3395642937076284,0.0868739095512647,mp-1183130,Al3Ag
0.0,3.685398622209837,70.22902188632486,4,True,False,False,False,False,False,False,0.31428492984503953,0.011512229817473504,mp-1183129,Al3As
0.0,6.933301201630009,66.56026703368926,4,False,False,False,False,True,False,False,-0.004145396806242679,-0.20992439305339272,mp-1183189,Al3Au
0.453,2.8631953255002713,120.36064717516008,10,False,True,False,False,False,False,False,0.011202682914752071,-0.21978959729037817,mp-1228446,Al3BC
1.7548,2.625633715050303,161.6344984459591,14,False,True,False,False,False,False,False,0.17918388018338935,-0.20297343815989455,mp-1214836,Al3BC3
3.3606,3.267975538097841,75.09189463984231,8,True,False,False,False,False,False,False,-0.986017899043841,-1.4067358594518033,mp-1019380,Al3BN4
9.999999999976698e-05,4.618512200731865,188.81658714343223,20,False,False,False,False,False,False,True,-2.782994565553116,-3.02132594677665,mp-1214839,Al3Bi(BO3)4
0.0,4.328260596477741,74.18096637796828,4,True,False,False,False,False,False,False,0.4517250833143839,0.12329047174773004,mp-1183140,Al3Cd
0.0,4.747903691308382,258.8690227912447,20,True,False,False,False,False,False,False,0.04971897900576831,-0.34643686550267244,mp-1214851,Al3Co3Si4
0.0,3.80386617646166,58.03391651727654,4,False,False,False,False,True,False,False,-0.1070434321682038,-0.12062478750783315,mp-867780,Al3Cr
3.3694,4.3213899603325,175.9429387628686,20,False,False,True,False,False,False,False,-2.764576449143009,-3.159975318862561,mp-762236,Al3CrO6
0.0,3.9705585803335133,60.42784848494482,4,True,False,False,False,False,False,False,0.13735953365812398,-0.07558970071347908,mp-1183161,Al3Cu
0.0,4.136764462174224,57.99999359085728,4,False,False,False,False,True,False,False,0.28257131028897486,-0.06840146797232659,mp-985825,Al3Cu
0.0,4.771500013789294,72.39923018355245,5,False,False,False,False,False,False,True,-0.00980372348137655,-0.2514071009908616,mp-10886,Al3Cu2
0.0,4.151306674196288,109.43277322920537,8,False,True,False,False,False,False,False,-0.12479407259967684,-0.16571738075548928,mp-984873,Al3Fe
0.0,3.674594820429559,174.39671937143603,12,False,False,False,False,True,False,False,-0.15296644651580743,-0.2031223641355813,mp-1228467,Al3FeSi2
0.0,3.901036253267618,64.13410331621851,4,True,False,False,False,False,False,False,0.3506569194992073,0.05692073913855103,mp-983594,Al3Ga
0.0,7.9945790712414695,182.16991993277372,16,False,False,True,False,False,False,False,-0.12959599724177678,-0.4838485732957255,mp-1228603,Al3Ga3Ni10
3.349899999999999,4.025259820813651,85.26757714104187,8,True,False,False,False,False,False,False,-1.2455954856406612,-1.4089147615238247,mp-1019378,Al3GaN4
3.4096,4.028504836510983,85.19889294243089,8,False,False,True,False,False,False,False,-1.0295273993083938,-1.4999660887273898,mp-1228436,Al3GaN4
0.0,3.715648585671171,68.63761431803542,4,False,False,False,False,True,False,False,0.14825867440965604,0.07773923137998456,mp-1183195,Al3Ge
0.0,8.026152996809866,119.84465344944957,8,False,False,False,False,False,False,True,-0.49339216292209553,-0.7698749317483641,mp-1228473,Al3GePd4
0.0,9.416493884959571,275.76514225364116,18,False,False,False,False,False,True,False,0.010224042980079479,-0.1375923480831924,mp-1228562,Al3GeW2
0.0,2.317987695297724,58.70843093329598,4,True,False,False,False,False,False,False,0.5907568078921752,0.39030175071018697,mp-1183138,Al3H
0.0,7.421679604610374,122.23527791463933,8,False,True,False,False,False,False,False,-0.459418381802538,-0.7531220074759192,mp-2294,Al3Ir
0.0,4.9139439906479065,239.09414952668516,16,False,False,True,False,False,False,False,-0.19255706854259189,-0.37377153977573196,mp-571247,Al3Mo
4.0847,3.640821705557034,130.39542978726368,14,False,False,False,False,False,False,True,-2.6093258337773317,-2.846528589012961,mp-1228939,Al3NO3
0.0,4.058169020834075,228.55073726894787,16,False,False,False,True,False,False,False,0.032168218257166065,-0.4476576800835384,mp-622209,Al3Ni
0.0,4.883766094782531,67.43506090961826,5,False,False,False,False,False,False,True,-0.43075040842847134,-0.6504149663908804,mp-1057,Al3Ni2
0.0,8.3718783203596,78.0328669791897,6,False,False,False,False,True,False,False,-0.3145519148568938,-0.7215992465789884,mp-1228921,Al3Ni2Pt
0.0,6.879616056635388,90.37206581100932,8,False,False,False,True,False,False,False,-0.4327065731986408,-0.558541356170945,mp-16514,Al3Ni5
0.0,7.16528642012203,143.9607610522702,13,False,False,False,False,True,False,False,0.03025991226421436,-0.3668066525099961,mp-1229029,Al3Ni9C
0.0,8.733062338724576,245.4602651246758,16,False,False,False,True,False,False,False,0.349293811223682,-0.16021498974627923,mp-1229051,Al3NiMo12
0.0,11.214743816122077,68.3190273989156,5,False,False,False,False,True,False,False,-0.6665994890190954,-0.5744145202809035,mp-16521,Al3Os2
0.0,2.858714855777335,130.01985016575824,8,False,True,False,False,False,False,False,0.2469184621853805,0.004954512148627667,mp-1183180,Al3P