band_gap,density,volume,nsites,crystal_Cubic,crystal_Hexagonal,crystal_Monoclinic,crystal_Orthorhombic,crystal_Tetragonal,crystal_Triclinic,crystal_Trigonal,formation_energy_pbe,formation_energy_r2scan,material_id,formula
0.0,5.060168793949575,61.48535294048137,4,True,False,False,False,False,False,False,0.03484566501458096,-0.31694293211382313,mp-1183127,Al3Pd
0.0,6.138300384182941,79.47490366535837,5,False,False,False,False,False,False,True,-0.5427977239064479,-0.8224285581604311,mp-10901,Al3Pd2
0.0,8.899686207946214,228.7686352796945,16,False,False,False,True,False,False,False,-0.5018613433692997,-0.8447685263777891,mp-16523,Al3Pd5
0.0,7.452115543021319,61.50686974582122,4,False,False,False,False,True,False,False,-0.2954724644136161,-0.4689572786968862,mp-1183175,Al3Pt
0.0,9.835325255848748,79.5399117928314,5,False,False,False,False,False,False,True,-0.7896363938790639,-1.143775072916913,mp-10905,Al3Pt2
0.0,9.515471537568265,164.42714377640561,10,False,False,False,False,False,False,True,-0.47011218430880997,-0.7680438290728244,mp-569916,Al3Pt2
0.0,15.078719485042974,232.66361773621125,16,False,False,False,True,False,False,False,-0.504129296376031,-0.9879530665012732,mp-1501,Al3Pt5
0.0,5.238199629829475,230.79867251101987,16,False,True,False,False,False,False,False,-0.09578282583815309,-0.4574585579670679,mp-1188814,Al3Ru
0.0,5.985448525409189,78.53597966699004,5,False,False,False,False,False,False,True,-0.18222465468871774,-0.48081695672489383,mp-1069983,Al3Ru2
0.0,6.946998862871915,67.66563129895513,5,False,False,False,False,True,False,False,-0.5370726189183702,-0.8009942368148039,mp-1070580,Al3Ru2
0.0,8.539666738416763,245.06743031345383,16,False,False,False,True,False,False,False,-0.04199685579837907,-0.28552232557211105,mp-1229023,Al3SiMo12
0.0,7.799141661190932,113.84676354968607,8,False,False,False,False,False,False,True,-0.5887893550479422,-0.8177739559269097,mp-1228909,Al3SiPd4
0.0,4.254768973516464,77.92063245420078,4,True,False,False,False,False,False,False,0.5175216876067434,0.12228938046771634,mp-1183131,Al3Sn
0.0,4.238888157816572,78.21255881723594,4,False,False,False,False,True,False,False,0.4000797891269596,0.15135703989731109,mp-1183200,Al3Sn
0.0,5.147889414826838,57.72162168787045,4,False,False,False,False,True,False,False,-0.011501763965538127,-0.34544439466249477,mp-867347,Al3Tc
0.0,5.464644799301861,84.15503124360058,5,False,False,False,False,False,False,True,0.40418205046348576,-0.21711388146480537,mp-1070275,Al3Tc2
0.0,5.7392965582378785,82.55334885899755,4,True,False,False,False,False,False,False,0.7153723221814178,0.28190201089966554,mp-983584,Al3Tl
0.0,3.676779817281534,59.56354704697898,4,True,False,False,False,False,False,False,0.045794100174825804,-0.22118233337344914,mp-1008554,Al3V
0.0,3.798254844479554,57.65859759155777,4,False,False,False,False,True,False,False,0.13628825332459268,-0.38932794427542206,mp-2554,Al3V
0.0,9.283813473911716,121.71820903364001,10,False,False,False,True,False,False,False,0.5677776978362463,0.3386368001296562,mp-1228977,Al3W3C4
0.0,6.164744876978809,84.2633645682995,8,False,False,False,True,False,False,False,0.534773061832698,0.5931397342587933,mp-1228936,Al3WC4
0.0,3.887623150455881,62.51271976955088,4,True,False,False,False,False,False,False,0.18508554461238838,0.036850540173502144,mp-983585,Al3Zn
0.0,6.12262448984725,152.50949017193196,12,False,False,False,False,True,False,False,-0.0163927881538794,-0.029016076482574513,mp-1228973,Al3ZnCr8
0.0,7.772228017897602,181.74686809756466,16,False,False,False,False,True,False,False,-0.10578023010619533,-0.33227152484649325,mp-1229039,Al3ZnNi12
3.2355,2.97578325824867,152.64163772932,15,False,False,True,False,False,False,False,-2.6800896753437904,-3.0209323471186242,mp-1247834,Al4B2O9
1.3154,2.991752250158876,79.90244024318747,7,False,False,False,False,False,False,True,0.31320922398414935,-0.18718093311325484,mp-1591,Al4C3
0.0,2.998670890049211,79.71808649758769,7,False,False,False,False,False,True,False,0.5177855546360534,0.17481631246411306,mp-632442,Al4C3
0.0,2.967404241171015,80.55805207598092,7,False,False,False,False,False,True,False,0.6142005963929564,0.3960213826869593,mp-743752,Al4C3
0.13470000000000001,2.414420905154885,244.78207424397544,18,False,False,False,True,False,False,False,-0.39620887615581074,-0.8426107031990537,mp-10990,Al4CN3O
0.0,2.830724059405846,79.74195162133007,6,False,False,True,False,False,False,False,-0.7365201096845149,-0.6503079556565974,mp-1173027,Al4CO
0.0,2.3502309459811572,96.04479993103023,6,False,False,True,False,False,False,False,0.6546659620496178,0.3425784431543765,mp-1247836,Al4CO
0.0,2.9132821590253872,77.48218287033042,6,False,False,True,False,False,False,False,-0.17422257258362106,-0.5732611490910953,mp-1265399,Al4CO
0.0,2.90458464520529,77.7141962005112,6,False,False,False,False,False,True,False,-0.5088298368669762,-0.5800211663694056,mp-676414,Al4CO
3.823299999999999,2.749442316622726,222.1762176121092,18,False,False,False,True,False,False,False,-2.123156510741184,-2.6021754757644566,mp-13703,Al4CO4
0.0,7.90652983447606,218.4899623461834,20,False,False,False,False,True,False,False,0.01144329412416406,-0.30331521724578187,mp-1228914,Al4CrNi15
0.0,2.856178167054754,242.1132688396882,13,True,False,False,False,False,False,False,-0.8737932324697342,-1.1072892492891726,mp-1228748,Al4CrS8
0.0,7.33078974545888,240.35948236996686,19,False,False,False,False,True,False,False,0.2866040936001517,-0.16732527742340558,mp-1228752,Al4Cu15
0.0,3.783404323692552,152.30469139342685,13,True,False,False,False,False,False,False,-1.7478395517139549,-2.421959074235824,mp-29225,Al4Cu2O7
0.0,6.640332949788469,122.5478037971601,10,False,False,False,False,True,False,False,0.08861756625877425,-0.24423774456578243,mp-1228777,Al4Fe5Rh
0.9859999999999991,4.320039267683167,302.29575794483554,10,False,False,False,True,False,False,False,0.09825838494504839,-0.22967473350503537,mp-1228691,Al4GaSb5
0.0,9.906924382287816,134.88335690590938,9,False,False,True,False,False,False,False,0.13920043729118436,-0.09359308244477589,mp-1228701,Al4Ge2W3
1.330299999999999,3.512968959830848,277.53055119308004,14,False,False,False,False,False,False,True,-0.8294750332173356,-0.965429254103807,mp-1228698,Al4InAgS8
0.6835,4.431940641130558,360.5472584948864,14,False,False,True,False,False,False,False,-0.45676366519693334,-0.9398470935997288,mp-1228721,Al4InAgSe8
0.396099999999999,4.793011196934193,468.19690531966324,14,False,False,True,False,False,False,False,-0.32470727449348313,-0.4919870625119982,mp-1228728,Al4InAgTe8
1.1498,3.4100488404894262,264.3239171316417,14,False,False,False,False,False,False,True,-0.7336946925123341,-1.0989690048568577,mp-1228699,Al4InCuS8
0.0,4.181840377895131,242.85554909852902,15,False,False,True,False,False,False,False,-0.06015930918143554,-0.265719323302143,mp-30180,Al4Mo
0.0,7.232051553477196,189.25639923255244,17,False,False,False,False,True,False,False,0.008807944597255715,-0.36587279069796314,mp-1228788,Al4Ni12C
0.0,7.424929117364063,221.0332010611085,19,False,False,False,False,True,False,False,0.08056435158251919,-0.25689666504979947,mp-1228713,Al4Ni15
0.0,7.803332959887609,225.77242536194544,20,False,False,False,False,True,False,False,0.06784998763868283,-0.413697492817695,mp-1228288,Al4Ni15Ge
0.0,7.963485033341482,231.47442099712944,20,False,False,False,False,True,False,False,-0.1416238833282131,-0.3267374755502685,mp-1228500,Al4Ni15Sb
0.0,7.852890145291669,234.0894128209684,20,False,False,False,False,True,False,False,-0.11504480304400372,-0.34331182282823247,mp-1228460,Al4Ni15Sn
0.0,7.84833092870337,101.3652784444797,8,False,False,False,False,True,False,False,-0.5668218123673452,-0.7025009259096424,mp-1228186,Al4Ni3Pt
0.0,2.835248518988961,79.6588602838371,5,False,False,False,False,False,False,True,0.3482703149885823,0.11102878659409579,mp-1228120,Al4Si
0.0,5.630119684849087,266.57553720121984,18,False,False,True,False,False,False,False,-0.00619358236073423,-0.3453929377586081,mp-1228192,Al4Si2Mo3
0.0,2.906301797095144,210.32200593787317,18,False,True,False,False,False,False,False,0.38390855819270975,-0.05084651134371347,mp-1106244,Al4SiC4
1.200899999999999,2.982586873305359,204.94263865262954,18,False,True,False,False,False,False,False,-0.044388890152958854,-0.18039742175569368,mp-1214816,Al4SiC4
0.0,3.742360153338143,107.57041455579424,6,False,False,False,False,False,False,True,0.11976343697418201,-0.26119302421194934,mp-1228117,Al4SiPd
0.0,4.531543011628796,226.3788007782774,15,False,False,True,False,False,False,False,0.09491446748741059,-0.37631289453395644,mp-1104047,Al4Tc
0.0,7.657011385144012,225.3811721727714,20,False,False,False,False,True,False,False,-0.03107781751644391,-0.4149811270942213,mp-1228506,Al4VNi15
0.0,6.124799187967377,237.30856285606666,15,False,False,True,False,False,False,False,0.4208362172170439,-0.14984063514847293,mp-30336,Al4W
1.5406,3.139955004914864,264.04847675258753,14,True,False,False,False,False,False,False,-0.927976634448864,-1.1507025008960876,mp-1228170,Al5AgS8
0.0,4.735766955289474,140.22529178720265,10,False,False,False,False,False,False,True,-1.0711871379967066,-1.1673172231647237,mp-1228304,Al5BiN4
1.4427,3.021355954208321,203.2934096556226,18,False,True,False,False,False,False,False,-0.33586804733564085,-0.3555419076141229,mp-5496,Al5C3N
0.8374,2.968047560319713,206.94471406925965,18,False,True,False,False,False,False,False,0.1500125106122674,-0.43048862629707496,mp-570079,Al5C3N
0.0,5.51931602402423,117.43562851183921,8,False,False,False,False,True,False,False,0.08204671709894461,-0.35096164667153495,mp-1228135,Al5CuMo2
1.4217,3.072380860125777,245.90102135672274,14,True,False,False,False,False,False,False,-0.8754536751008531,-1.175610141366598,mp-35267,Al5CuS8
0.504599999999999,4.708901106147338,292.7369670023177,14,True,False,False,False,False,False,False,-0.565261393373454,-0.9162824797356518,mp-37405,Al5CuSe8
0.0,7.959411154090757,118.11013351934595,8,False,False,False,False,True,False,False,-0.037847209094754475,-0.20530816006256217,mp-1228126,Al5CuW2
0.0,4.230784225162738,181.2106655693311,12,False,True,False,False,False,False,False,0.3908612411091919,-0.2643321939527665,mp-568607,Al5Mo
0.0,4.224615540205753,181.4752651514953,12,False,False,False,False,False,False,True,0.05283718646295209,-0.2590017825651167,mp-571053,Al5Mo
0.0,3.423949782522331,127.50202318302033,13,True,False,False,False,False,False,False,-2.8370050508092652,-3.1592423439593547,mp-1228138,Al5O8
0.0,2.7014644796864493,240.6031916625654,13,True,False,False,False,False,False,False,-0.7004945027613481,-1.1320332413509029,mp-1228158,Al5S8
0.0,4.358774072943756,292.0428521640637,13,True,False,False,False,False,False,False,-0.5547488863272351,-0.8954390572952452,mp-1228165,Al5Se8
0.0,5.850495544285634,180.93954353391507,12,False,True,False,False,False,False,False,0.14441568864187168,-0.13950470160734918,mp-30337,Al5W
0.115399999999999,2.9885899741900572,125.53526966350141,11,False,False,False,False,False,False,True,-0.3533892114986138,-0.5493248876972131,mp-5798,Al6C3N2
0.035800000000000005,2.8648540646718113,130.95726339085417,11,False,False,True,False,False,False,False,0.19298302311585533,-0.19610223796918863,mp-696353,Al6C3N2
0.0,3.205021857428421,148.12411659398194,14,False,False,False,False,False,False,True,-2.056332854814459,-2.623900299323354,mp-1228266,Al6CO7
0.0,4.833344397523112,141.36094110722527,10,False,False,False,False,False,False,True,0.18047836092324762,-0.3320755273924086,mp-1228194,Al6CoCu3
0.0,3.536242098483433,204.4861113230854,14,False,False,False,True,False,False,False,0.3431339218530535,-0.20002598816275305,mp-570001,Al6Fe
0.0,5.442555996747445,127.64562344427831,8,True,False,False,False,False,False,False,0.1010286816603252,-0.10009937232325686,mp-1214809,Al6GeW
0.0,5.16602306215944,223.78041466443676,14,False,False,False,True,False,False,False,-0.07853943268164418,-0.2873793922680758,mp-16528,Al6Re
0.0,4.028992622747918,216.75595757090443,14,False,False,False,True,False,False,False,-0.07204869087209023,-0.3136315831115629,mp-16529,Al6Ru
0.0,3.885917519629625,222.11290892328958,14,False,False,False,True,False,False,False,0.021952885414736174,-0.28422543569868775,mp-16718,Al6Tc
0.0,2.844998709346211,167.3478657474304,14,False,False,False,False,False,False,True,0.28332784064266925,-0.19314568146483843,mp-1228130,Al8BC5
0.0,3.046185222456329,167.84881874127723,15,False,False,False,False,False,False,True,-0.737376694790556,-0.7861840249599765,mp-541187,Al8C3N4
0.0,3.997371506137735,211.06585199576384,15,False,False,False,False,False,True,False,0.42670435559964504,-0.10385531166883144,mp-1214842,Al8Cr4Si3
0.0,5.103490179411473,163.88148426367061,11,False,False,True,False,False,False,False,-0.10532510024139446,-0.4335599545578938,mp-2733,Al8Mo3
0.0,2.9356544206041013,208.7236441965201,18,False,False,False,False,False,False,True,0.12243940395233195,-0.06868028873195794,mp-1228997,Al9SiC7N
0.0,6.819245943325724,32.83695307767289,2,False,True,False,False,False,False,False,0.11819839121097483,-0.02874618353188145,mp-1228901,AlAg
1.6205999999999992,4.385035805906184,253.9287203629912,10,False,False,True,False,False,False,False,-0.5352314012813525,-0.5737128365880658,mp-1228964,AlAg(PSe3)2
1.5724,7.251473479899772,144.38600594941948,12,False,False,False,False,False,True,False,-1.615242745877934,-2.010171840355,mp-1047169,AlAg(WO4)2
0.0,8.170901523456344,98.65315792948888,6,False,False,False,True,False,False,False,0.2542320484115946,-0.08740052039347501,mp-985805,AlAg2
0.0,8.320607458548649,69.96628338182508,4,False,False,False,True,False,False,False,0.1248250692888429,0.03252336122105785,mp-1228927,AlAg3
0.0,8.683933897840129,335.1948472906604,20,False,False,False,False,False,False,True,0.03326365394045558,-0.0805037629769658,mp-1228988,AlAg3
0.268099999999999,5.2326163824976835,147.4305523779326,10,True,False,False,False,False,False,False,-1.8848222473935252,-2.1090514192435115,mp-1205591,AlAg3F6
0.0,8.671245147627953,87.7937743123103,5,False,False,False,False,False,False,True,0.565950982860075,-0.04821906854387886,mp-1228947,AlAg4
0.0424,0.100697878600463,19406.766761953655,13,False,False,False,False,False,True,False,2.613155067367573,2.349120941064876,mp-1247813,AlAg7Se5
1.413399999999999,0.9850972507116281,891.3481625383874,4,False,False,False,True,False,False,False,0.9935520735947841,0.9009388968889812,mp-1096668,AlAgAu2
0.0,5.245118397368363,46.11437313530747,3,True,False,False,False,False,False,False,1.1085593899204416,0.8583887380523577,mp-631568,AlAgB
1.0623,6.215196653089008,44.577594566169914,4,False,False,False,False,False,False,True,-1.9643472583788164,-2.2093373972956196,mp-1096824,AlAgO2
0.825199999999999,5.244897918757595,211.29754732465588,16,False,False,False,True,False,False,False,-2.3450218481079017,-2.261717628511327,mp-11794,AlAgO2
1.4090999999999991,6.30693839740901,87.85832335519181,8,False,True,False,False,False,False,False,-2.013021326644326,-2.3262423125919356,mp-9631,AlAgO2
0.0,5.752918850209689,52.77775563990637,5,True,False,False,False,False,False,False,-1.3496598948646346,-1.6183396763900528,mp-1183169,AlAgO3
0.062200000000000005,4.898784496633195,247.91957719409973,20,False,False,False,True,False,False,False,-1.3566660541113202,-1.7879962756527894,mp-1253488,AlAgO3
0.032,5.109883300879145,237.67755732530313,20,False,False,False,True,False,False,False,-1.1602570810915305,-1.7123409844697683,mp-1343733,AlAgO3
0.0,5.213036809008493,116.48724396800377,10,False,True,False,False,False,False,False,-0.9118966189011695,-1.3919575893467566,mp-1404877,AlAgO3
0.0,4.730922084847537,64.17906273811799,5,True,False,False,False,False,False,False,0.008829973083442397,-0.33804636991298226,mp-1418444,AlAgO3
1.634999999999999,4.378101175329276,75.46961940236696,4,False,False,False,False,False,False,True,-0.6847850414674848,-0.8300508168548884,mp-1096820,AlAgS2
1.8992,3.900206524762422,169.43391449112187,8,False,False,False,False,True,False,False,-0.2179990784187701,-0.9351593635315683,mp-5782,AlAgS2
1.7077,4.4128726240685054,74.87495279266112,4,False,False,False,False,False,False,True,-0.5246961325540609,-0.8825171721200624,mp-7885,AlAgS2
1.135199999999999,4.941582476882665,196.76109454324236,8,False,False,False,False,True,False,False,-0.44112270824430816,-0.7803349011779273,mp-14091,AlAgSe2
1.1072,4.7683876179410625,198.28725896771562,7,False,False,False,False,True,False,False,-0.47332078821530954,-0.76641977099382,mp-1228963,AlAgSnSe4
1.0469,5.285977139432593,245.06077562489892,8,False,False,False,False,True,False,False,-0.1095487746348238,-0.3994022639025551,mp-14092,AlAgTe2
0.0,4.549895623815901,74.3815492244361,4,False,True,False,False,False,False,False,-0.1003993330385904,-0.3693497370340496,mp-11209,AlAs
1.503699999999999,3.701817725841658,45.711095247398035,2,True,False,False,False,False,False,False,-0.4130920772820345,-0.6452378778964712,mp-2172,AlAs
1.686999999999999,3.708645605340462,91.25387576035061,4,False,True,False,False,False,False,False,-0.40166652743605785,-0.605960560394878,mp-8881,AlAs
0.0,4.263957747543094,39.68476065504077,2,False,False,False,False,True,False,False,0.2933149782176003,-0.015544740556569753,mp-988939,AlAs
0.0,4.554370687206563,37.1542314572208,2,True,False,False,False,False,False,False,-0.13214260692006377,-0.3714669023248934,mp-988940,AlAs
1.1898,3.90882147248744,346.32258105514825,16,True,False,False,False,False,False,False,-0.2841723011515737,-0.5118763137969886,mp-988945,AlAs
3.865,3.350112372244154,246.69440336285297,18,False,False,False,False,False,False,True,-2.1401220604295474,-2.5086414587858834,mp-5189,AlAsO4
4.2634,2.838164174716684,97.06438411040634,6,False,False,False,False,True,False,False,-2.1812501155297945,-2.4547012441134495,mp-7849,AlAsO4
0.0,16.321434805431004,109.60661120321066,7,False,False,False,False,True,False,False,-0.04277327492687877,-0.5636306185166781,mp-1025306,AlAsPt5
0.0,11.097747367525407,33.50901486991242,2,True,False,False,False,False,False,False,-0.3684317837589518,-0.2736850226004467,mp-10871,AlAu
0.0,10.805918253835348,137.65589293772447,8,False,False,True,False,False,False,False,0.04074481528836821,-0.4354602203384218,mp-1399,AlAu
0.0,14.216788466360812,49.163372294201366,3,False,False,False,False,True,False,False,0.16950108220797733,-0.3457840784875705,mp-1018179,AlAu2
0.0,14.150474368271912,197.5750765689593,12,False,False,False,True,False,False,False,-0.34432180569455645,-0.31506588508278494,mp-569558,AlAu2
0.0,15.307869129254911,134.05078632106247,8,False,True,False,False,False,False,False,0.04947877213795067,-0.23863204634839455,mp-1183223,AlAu3
0.0,14.968187302681958,90.39749450720004,5,False,False,True,False,False,False,False,0.09169504410063326,-0.12930798858469375,mp-1228956,AlAu4
0.0,15.9273314880959,339.8150231225442,20,True,False,False,False,False,False,False,-0.13547156070767222,-0.25441131706780074,mp-1490,AlAu4
0.5888,9.567555064145138,88.84398076536914,8,False,True,False,False,False,False,False,-2.04132371313863,-2.2472242671205898,mp-16613,AlAuO2
0.0,8.486096191787198,53.21380497954464,5,True,False,False,False,False,False,False,-1.2670472698198743,-1.4444644487184704,mp-1183159,AlAuO3
0.0,3.192131293916214,25.28344456699514,3,False,True,False,False,False,False,False,0.5124274448468773,-0.06545518607323511,mp-944,AlB2
0.0,6.498010018949916,65.36951589503158,4,True,False,False,False,False,False,False,2.2031540055221144,1.7920616203043345,mp-631514,AlB2Pb
3.5993,3.382682590395833,56.669476820013095,8,True,False,False,False,False,False,False,-0.6281427023133782,-1.1034071239091834,mp-1019379,AlB3N4
0.0,6.405741254456994,69.33408515880396,6,False,False,False,True,False,False,False,-0.0786474628935158,-0.45754560913916,mp-7574,AlBMo
3.0501,3.329718034442567,32.81759318034103,4,False,False,False,False,True,False,False,-1.0310391006825834,-1.1460170586219809,mp-1008557,AlBN2
5.8392,3.497216426150522,81.46986382228383,10,False,False,False,False,False,False,True,-2.8970358967752996,-3.151467951689244,mp-8110,AlBO3