band_gap,density,volume,nsites,crystal_Cubic,crystal_Hexagonal,crystal_Monoclinic,crystal_Orthorhombic,crystal_Tetragonal,crystal_Triclinic,crystal_Trigonal,formation_energy_pbe,formation_energy_r2scan,material_id,formula
0.0,12.105573628551594,169.246632081953,8,True,False,False,False,False,False,False,0.3726919615045524,0.1154835304274825,mp-758523,AgHg
0.0,12.889389675443114,91.42263395890336,4,True,False,False,False,False,False,False,0.4073781516068558,0.13108511377098755,mp-1183210,AgHg3
0.0,6.934570546690842,214.25628168666876,14,False,False,False,True,False,False,False,-0.7221102472639769,-1.0621455162463802,mp-1229053,AgHgAsO4
1.2453,5.838973114425365,272.77148743482564,12,False,False,True,False,False,False,False,-0.05663620115668214,-0.40881141072196875,mp-6215,AgHgAsS3
0.0,8.607439519434182,131.36128292763178,8,False,False,False,False,False,True,False,-0.09845330570933113,-0.47057232009806405,mp-997000,AgHgO2
0.0,8.722297859369537,129.6314705396452,8,False,False,True,False,False,False,False,-0.21599377180795545,-0.46949305867964625,mp-997001,AgHgO2
0.0,12.827224293893082,67.48428238370957,4,True,False,False,False,False,False,False,0.17235136500574855,-0.16864527868247606,mp-861501,AgHgPd2
1.2604,6.111590113044165,456.92579335201015,16,False,False,False,True,False,False,False,-0.5440299580964831,-0.5140858553224722,mp-560067,AgHgSBr
1.3584,6.522150985455425,476.02817449379484,16,False,False,False,True,False,False,False,0.011017023288705186,-0.41634777902588016,mp-23140,AgHgSI
1.1391,6.583453009080383,471.5956236183325,16,False,False,False,True,False,False,False,-0.07339335153196816,-0.43219091071526927,mp-558446,AgHgSI
1.879699999999999,0.5321381835694491,732.608939448734,2,False,True,False,False,False,False,False,0.8055621881456149,0.33114260705750703,mp-1182980,AgI
1.3877000000000002,5.492736317536004,141.9508120425751,4,False,True,False,False,False,False,False,-0.5995843300623874,-0.48671930687680964,mp-22894,AgI
0.0,6.804927293483764,57.289251375,2,True,False,False,False,False,False,False,0.538233567383777,-0.013528275459754227,mp-22915,AgI
0.7684000000000001,6.6422056414720885,58.69273120224999,2,True,False,False,False,False,False,False,-0.09368142255660811,-0.37272249376460753,mp-22919,AgI
1.3674,5.513316054259083,70.710473781714,2,True,False,False,False,False,False,False,0.0008740791772963996,-0.4418894432873873,mp-22925,AgI
1.5986,5.868414368244994,132.86355251753565,4,False,False,False,False,True,False,False,-0.3173267124021617,-0.48506780478335865,mp-567809,AgI
0.9588999999999991,6.689685269394208,116.55232633695874,4,False,False,True,False,False,False,False,0.02977283742605344,-0.3855388367199812,mp-568927,AgI
1.3759000000000001,5.809898805745882,268.4034289336924,8,False,True,False,False,False,False,False,-0.3257722328093805,-0.4353003540558338,mp-580941,AgI
1.3143,5.320322248904008,73.27548446624623,2,False,False,False,False,True,False,False,-0.25746671743770283,-0.504388659679878,mp-684580,AgI
0.0,5.145414428420103,116.721214359125,3,False,False,False,False,True,False,False,0.2875097358577969,-0.3120513802593792,mp-33154,AgI2
0.0,6.806619282995461,260.3256796783034,16,False,False,False,False,True,False,False,-0.02778709990616804,-0.2981639174594991,mp-1214931,AgIO2
1.9765000000000001,5.657596324183561,331.9799078095097,20,False,False,False,True,False,False,False,-0.3529838608563736,-0.6822576137781304,mp-849271,AgIO3
0.11079999999999901,5.508180935239086,180.13921877535253,12,False,False,False,False,True,False,False,-0.11418161150779788,-0.5500645696615957,mp-30037,AgIO4
0.0,15.46694780888715,32.217293551747446,2,False,True,False,False,False,False,False,0.7310958398625547,0.3686181500995417,mp-1183229,AgIr
0.0,6.321282139292223,296.2116587518996,15,False,False,False,False,False,True,False,-0.2812262611729076,-0.5830034242699097,mp-1229066,AgMo6(SeS)4
1.035999999999999,2.902924702810142,200.268985910678,11,False,False,False,False,True,False,False,-0.22338811250885326,-0.5560931365150071,mp-1103149,AgMoH4S4N
0.0,5.602159213836465,158.76092634558518,12,False,False,False,False,True,False,False,-0.6494251858253697,-1.3395116378711458,mp-1214906,AgMoO4
0.0,6.67560166843368,30.316073777279907,2,True,False,False,False,False,False,False,1.8408468296116283,1.5409649962288021,mp-1009766,AgN
0.0,7.992634066576969,25.320567788066068,2,False,True,False,False,False,False,False,1.874591236173912,1.580269265022975,mp-1009767,AgN
0.0,8.229639302256075,24.59136120734822,2,True,False,False,False,False,False,False,1.8773024235678077,1.4465436797938822,mp-1056955,AgN
0.0,6.758948000262353,119.76895379583502,8,False,False,False,True,False,False,False,1.9859586541103635,1.4789439806222342,mp-1091417,AgN
0.0,4.802481289392578,84.28061266369463,4,False,False,False,True,False,False,False,2.397673220000724,1.9301630711772333,mp-1424734,AgN
0.0,8.522483686675045,23.746367858044433,2,True,False,False,False,False,False,False,2.047667922471045,1.5925116316854229,mp-1428312,AgN
0.0,8.118960175545979,49.85319014065959,4,False,True,False,False,False,False,False,1.5577917372570946,1.4306505212284784,mp-999197,AgN
1.5714000000000001,4.322439136641746,115.16431806585773,8,False,False,False,True,False,False,False,1.1699565681784985,0.6818748488357134,mp-2247,AgN3
1.631499999999999,4.865613227821148,102.30791726440519,8,False,False,False,False,True,False,False,0.7729868768805308,0.6165019043152644,mp-571297,AgN3
0.0,1.981294364030391,355.1788597744075,16,False,True,False,False,False,False,False,1.9026932545775201,1.5322682434269177,mp-1190337,AgN4O3
1.7868,4.04146482234625,63.222940543610015,4,False,False,False,True,False,False,False,-0.30392044416956876,-0.46785817321947926,mp-5770,AgNO2
1.4382000000000001,3.945509421071105,129.52106453362518,8,False,False,True,False,False,False,False,-0.20745019490561492,-0.5441134883729554,mp-996960,AgNO2
1.853899999999999,4.509524594558627,125.10450403344892,10,False,False,False,False,False,False,True,-0.33134918378781203,-0.6996461962298852,mp-552185,AgNO3
1.7204000000000002,4.21374420425511,66.94305711049056,5,False,False,False,False,False,False,True,-0.3012886200157921,-0.6315989682058805,mp-8196,AgNO3
0.0,7.138368094620301,57.62857453119974,4,False,False,True,False,False,False,False,-0.07377201019803835,-0.45608869876401315,mp-1065190,AgO
0.0,6.803873473451433,60.46173247887936,4,False,False,True,False,False,False,False,0.10820418952546498,-0.4409316004496612,mp-1066856,AgO
0.115999999999999,7.621574678691285,107.94986472338863,8,False,False,True,False,False,False,False,-0.03219350310623506,-0.377898077023881,mp-1079720,AgO
0.1826,7.240353217422181,227.26735308000775,16,False,False,False,False,True,False,False,-0.13201485050192932,-0.3827449727022352,mp-1288,AgO
0.0,6.730482161807199,61.1210263814898,4,False,False,False,False,True,False,False,0.0020413094099225593,-0.43456721394446896,mp-2803876,AgO
0.0,7.128585428207505,57.707659102207735,4,False,False,False,True,False,False,False,0.038485030005364046,-0.4501092117114332,mp-499,AgO
0.0,6.324174048533369,32.52392918150042,2,True,False,False,False,False,False,False,-0.018019480603880866,-0.12277647487526334,mp-8222,AgO
0.0,4.7364199022474125,98.07180208745356,6,True,False,False,False,False,False,False,0.7809055999219228,0.38758360904145134,mp-1214896,AgO2
0.0,5.39287848915329,172.26764377894028,12,False,False,False,False,True,False,False,0.39890409662441373,0.007462353575552541,mp-1214946,AgO2
0.49610000000000004,4.20640771062423,125.42873943411082,8,False,False,False,True,False,False,False,-0.3790851384206648,-0.6493585736702054,mp-997028,AgO2F
0.0,4.303992067548637,122.58489523425662,8,False,False,True,False,False,False,False,-0.1401787084199232,-0.6520117996480523,mp-997101,AgO2F
1.1378,2.802009350769101,353.53747602559196,18,False,False,False,False,False,False,True,-0.3228576074397991,-0.6300480031614805,mp-1189095,AgP(NO)2
0.6586999999999991,4.98170620894439,226.41691982451545,12,False,False,True,False,False,False,False,0.2805842877032724,-0.03930240861764608,mp-8200,AgP2
3.2361,3.157349247405605,132.97168396213513,8,True,False,False,False,False,False,False,-2.0905745977646037,-2.388943850030888,mp-34418,AgPF6
2.287,4.6879325281271225,264.7268375552521,20,False,False,True,False,False,False,False,-1.6102664721246827,-1.9460247227667626,mp-775762,AgPO3
0.0,10.097154607475742,110.34052489375327,7,False,False,False,False,True,False,False,-0.1619297282213533,-0.28972863075141136,mp-1078079,AgPPd5
0.0,16.551072170711873,111.791882679452,7,False,False,False,False,True,False,False,-0.12658309745717816,-0.2041932717923042,mp-1025385,AgPPt5
1.3228,3.508777848132174,222.4638175390565,10,False,False,True,False,False,False,False,0.3066745532010098,-0.20901499423427883,mp-5470,AgPS3
1.9341,6.276837626315522,487.71862786878813,16,False,False,True,False,False,False,False,-0.9261385855810811,-1.112028150420585,mp-621612,AgPb2Br5
0.0,10.637230010847395,113.87461234805855,4,False,False,False,False,True,False,False,0.23638390591489195,0.09733434373844067,mp-1183256,AgPb3
0.0,10.542457753730062,229.79659434989034,8,False,True,False,False,False,False,False,0.06989855129278177,0.1094309955015489,mp-985702,AgPb3
2.4109,7.8646071235025055,437.5338063352565,20,False,False,False,False,True,False,False,-1.1346603458200932,-1.3254728694317202,mp-560923,AgPb4ClO4
0.18829999999999902,5.90910466322465,230.97725830115803,8,False,False,False,False,True,False,False,-0.9057305406777897,-1.0320366821507292,mp-559470,AgPbBrO
0.21799999999999903,5.86747808881931,121.42671659919569,8,False,False,False,False,False,True,False,-1.2017987891045467,-1.7436201586568663,mp-1206101,AgPbF6
0.0334,7.721378428408064,149.2786081063723,8,False,False,True,False,False,False,False,-0.54325920951527,-0.9838075640350252,mp-997019,AgPbO2
0.142799999999999,7.7740363204534795,148.26746067840446,8,False,False,True,False,False,False,False,-0.7868086834433237,-0.9833707776594268,mp-997021,AgPbO2
0.0,8.23510787178762,146.41846842959492,10,False,False,False,False,False,False,True,-0.2075681585316858,-0.9080278590844646,mp-1178556,AgPbO3
0.0,11.088973890324937,32.08898597207963,2,False,True,False,False,False,False,False,0.3816266555487421,-0.0608234787807926,mp-1183222,AgPd
0.0,11.118166798836851,32.004730100705125,2,False,False,False,False,False,False,True,0.1786812699737086,-0.006218091318080751,mp-1229012,AgPd
0.0,1.005063786540109,855.2881809390767,4,False,False,False,True,False,False,False,1.939445273602295,2.003554952770622,mp-1093988,AgPd2Au
0.0,13.315714010042823,64.55674679324731,4,False,False,False,False,False,False,True,0.5924252271386102,-0.07305847168566064,mp-1229031,AgPd2Au
0.6372,0.8649713132822021,1013.4581068961828,4,False,False,False,True,False,False,False,1.6419056083969106,1.561541935202792,mp-1097539,AgPd2Pb
0.0,14.911477813429897,67.73140164411454,4,True,False,False,False,False,False,False,-0.03647017829353477,-0.08028901993600386,mp-1183167,AgPdAu2
0.0,5.183616849140591,210.32398334050555,16,False,False,False,False,False,True,False,-0.9315203676985538,-1.3491238775375074,mp-31215,AgPdF6
0.0,7.7409913067987475,105.66325910649849,8,False,False,True,False,False,False,False,0.007226706784225823,-0.6964721988439317,mp-997038,AgPdO2
0.0,7.498738775609619,54.53839603346718,4,False,False,False,True,False,False,False,-0.11793911889008832,-0.6036386340894162,mp-997039,AgPdO2
0.0,6.5103557570517445,267.596321977409,20,False,False,False,True,False,False,False,0.21031366467452092,-0.1565600414957891,mp-776166,AgPdO3
0.0,15.640596936006565,32.163987440549775,2,False,True,False,False,False,False,False,0.3068198687497929,-0.08665767860821638,mp-1183209,AgPt
0.0,15.662035058541445,32.11996152045807,2,False,False,False,False,False,False,True,0.34873536631704616,-0.0691163479623493,mp-1229015,AgPt
0.0,17.89164822597189,64.32907440460727,4,True,False,False,False,False,False,False,0.44403115138467375,0.06107558736460972,mp-30353,AgPt3
0.0,18.889324557971843,78.08102236221835,5,False,False,False,False,False,False,True,0.31796379459540436,0.001954542400851505,mp-1229032,AgPt4
0.0,6.421493265259034,215.63504908050345,16,False,False,False,False,False,True,False,-1.1143923037822177,-1.464313048737211,mp-1214922,AgPtF6
0.38709999999999906,9.797313901605593,113.54116576903517,8,False,False,True,False,False,False,False,-0.3819211558515934,-0.6479274410640005,mp-997006,AgPtO2
0.055499999999999,10.121919952618493,109.89994457580165,8,False,False,True,False,False,False,False,-0.46463151249666645,-0.6534774823176406,mp-997007,AgPtO2
0.0,10.893824043721382,32.12810870243021,2,False,True,False,False,False,False,False,0.5212041551366519,0.26549163960713346,mp-1183233,AgRh
1.1739,4.246908140287553,157.53327862063614,12,False,False,True,False,False,False,False,-1.4166443385181948,-1.4605049066588363,mp-1214944,AgRh(SO4)2
0.0,4.522141595690885,238.5080148199774,16,False,False,False,False,False,True,False,-1.4211675979775455,-1.710923943622281,mp-1214934,AgRhF6
0.0,5.137192583338767,209.95261462868794,16,False,False,False,False,False,False,True,-1.4024430010726388,-1.5184031100867892,mp-2017405,AgRhF6
0.621799999999999,7.558340990326247,53.33620447425032,4,False,False,False,False,False,False,True,-0.7394941404990307,-0.8764672817121415,mp-1018033,AgRhO2
0.49760000000000004,7.551818652306676,106.76453953856871,8,False,True,False,False,False,False,False,-0.5469162452436432,-0.9074867517681601,mp-997106,AgRhO2
0.0,7.088594005287468,247.3932394475224,18,False,False,False,False,False,False,True,0.8555343626739129,0.33492812404313116,mp-1245583,AgRu2N3
0.0,6.427025653696133,265.5367834644938,20,True,False,False,False,False,False,False,-0.5561010914329862,-0.9884877408290188,mp-776168,AgRuO3
0.0,5.92482493712031,152.99036288285896,12,False,False,False,False,True,False,False,-0.9477636174879196,-0.9753120834155315,mp-761035,AgRuO4
0.0,4.208178407169784,160.94139911275323,12,False,False,False,False,False,True,False,-1.2073755628466616,-1.340838501812646,mp-1006372,AgSO4
0.0,4.179779769641671,162.03488171436467,12,False,False,False,False,False,True,False,-0.5772190547705156,-1.0438507913311592,mp-2763322,AgSO4
0.09809999999999901,6.430269642082305,199.43405147142656,8,False,False,False,False,True,False,False,-0.3816216842390775,-0.4596928777079643,mp-1229081,AgSb(PbS2)2
0.5397999999999991,4.562317938042881,210.8719592335945,15,False,False,False,False,False,True,False,-2.1212071126106653,-2.379568880781772,mp-14653,AgSb2F12
0.015599999999999002,7.365692790964949,58.08332686724545,4,False,False,False,False,False,False,True,0.7176868840203497,0.37344079130663743,mp-1247477,AgSbN2
0.094599999999999,6.786835394315514,271.7080679491053,20,True,False,False,False,False,False,False,-1.2897263385628772,-1.4490261033406489,mp-540872,AgSbO3
0.133299999999999,6.698918634552929,137.6369853909369,10,False,False,False,False,False,False,True,-1.1119051844114392,-1.4117107329921696,mp-545999,AgSbO3
0.0,6.283097735658409,140.8709340905063,6,False,False,False,True,False,False,False,-0.3926618815988397,-0.46737400222555686,mp-1229064,AgSbPbS3
0.0,0.8686486555017761,845.8376435335192,4,False,False,False,True,False,False,False,1.8501381623656539,1.6768891503109635,mp-1095943,AgSbPd2
1.744799999999999,3.326818196548525,586.5027042838361,16,False,False,True,False,False,False,False,0.17990864621513153,-0.13633759474490226,mp-1182950,AgSbS2
1.312699999999999,4.982195554740275,391.63213235978674,16,False,False,True,False,False,False,False,-0.1880095320609994,-0.22289456202905966,mp-1205392,AgSbS2
0.0,5.7229000775581245,85.23597487695989,4,False,False,False,False,True,False,False,0.23058434178781184,-0.14493947084207126,mp-1229010,AgSbS2
0.07639999999999901,5.64479599401018,86.4153403863857,4,False,False,False,False,False,False,True,0.1042905537547498,-0.20991615766492985,mp-1229019,AgSbS2
0.0,5.658872539648768,172.40076139420253,8,False,False,False,False,True,False,False,0.19346159425632414,-0.1794336735965221,mp-34371,AgSbS2
1.3716,5.037409127368564,387.3395667497914,16,False,False,True,False,False,False,False,0.0834757212034512,-0.22211755673601594,mp-3922,AgSbS2
1.6047,3.6371785214890062,536.4564476031264,16,False,False,True,False,False,False,False,0.35083556058982757,-0.16046712492954723,mp-627601,AgSbS2
0.0,6.756706381994815,95.24447118279467,4,False,False,False,False,False,False,True,0.10688804711593505,-0.17994046930981944,mp-1229000,AgSbSe2
0.0,6.64003106716099,96.91805953637824,4,False,False,False,False,True,False,False,0.07260926929996105,-0.11940139716666562,mp-1229008,AgSbSe2
0.0,6.639287966234777,193.85781414011146,8,False,False,False,False,True,False,False,0.11131499967359056,-0.23451925335345458,mp-33683,AgSbSe2
0.0,6.259735506212973,90.36610991005304,4,False,False,False,False,True,False,False,0.23795867919921115,-0.1686436462701354,mp-1228993,AgSbSeS
0.0,7.657933089415329,105.12969456498924,4,False,False,False,False,True,False,False,0.3165166617988566,0.004976399482840907,mp-1229003,AgSbTe2
0.0,7.035979497854548,228.84551239378865,8,False,False,False,False,True,False,False,0.15839024118058434,-0.13847013245432213,mp-1229025,AgSbTe2
0.0,5.72525713103462,140.6183422444594,4,False,False,True,False,False,False,False,0.2928125730789877,0.08237431583698948,mp-1229055,AgSbTe2
0.0,7.023188025778236,114.63115663917426,4,False,False,False,False,True,False,False,-0.05105779638264024,-0.21105657838398367,mp-12359,AgSbTe2
0.0,6.9774427924356495,115.38269687601785,4,False,False,False,False,False,False,True,-0.20182797201995203,-0.27871517540444446,mp-12360,AgSbTe2
0.0,7.062461294860218,455.97484110830356,16,False,False,False,False,True,False,False,0.4023642796030429,-0.15888882042777583,mp-1247876,AgSbTe2
0.0,7.312595981344026,186.12058558401128,6,False,False,False,True,False,False,False,-0.2548762155864688,-0.4113740159938319,mp-1229036,AgSbTe3Pb
0.0,6.878996782445512,105.29261306507541,4,False,False,False,False,True,False,False,-0.10258576983865512,-0.3381244646620942,mp-1229007,AgSbTeSe
0.0,6.166234105804218,283.0101761042696,20,False,False,False,True,False,False,False,-1.3164472095020445,-1.5002558421582108,mp-1229079,AgSbWO7
0.0,5.8110624049944715,53.38705785983609,2,True,False,False,False,False,False,False,0.34325883309114513,-0.1549576922351661,mp-379,AgSe
1.396399999999999,4.944996330259913,633.5274140517166,20,False,False,False,True,False,False,False,0.08474521651661379,-0.14063320945025987,mp-569052,AgSe3I
0.0,2.616306428249072,638.0752457930655,12,False,False,True,False,False,False,False,0.589979762372412,0.09807383614018239,mp-1101086,AgSe5
0.0,7.522514060079257,204.84830783392704,8,False,True,False,False,False,False,False,0.31046752386342075,0.20878390658784302,mp-1183248,AgSn3
0.0,1.077701028396771,956.0938431598917,4,False,False,False,True,False,False,False,1.5233032043335644,1.2506915675184773,mp-1097586,AgSnAu2
0.405599999999999,4.902214352980043,115.3616419681518,8,False,False,False,False,False,True,False,-1.9551904973639616,-2.1353319114524236,mp-10809,AgSnF6
0.2576,4.416421340340002,128.05107426550046,8,False,False,False,False,False,True,False,1.9476372397910093,1.3226747605490616,mp-990257,AgSnF6
0.0,7.835110187880023,101.97702794327867,6,False,True,False,False,False,False,False,0.44347221047890806,0.3514794187533959,mp-1245446,AgSnN
0.0,6.775067906671611,134.59491336386625,10,False,False,False,True,False,False,False,-1.0033748267992777,-1.298752755035791,mp-755834,AgSnO3
0.8147000000000001,0.835065372792212,873.7891804030232,4,False,False,False,True,False,False,False,1.9193861373481478,1.4751787334852524,mp-1096381,AgSnPd2
0.0,0.8585207697468721,836.3212444908197,4,False,False,False,True,False,False,False,2.6443398754510583,2.2286787468726934,mp-1097284,AgSnRh2
0.0,5.731764175555679,84.22054855984481,4,False,False,False,False,True,False,False,-0.001549869404569259,-0.29241776473954445,mp-1229005,AgSnS2
0.0,6.9169837227548445,92.3053035439403,4,False,False,False,False,False,False,True,-0.053422273241260976,-0.3164670407860311,mp-1229011,AgSnSe2