band_gap,density,volume,nsites,crystal_Cubic,crystal_Hexagonal,crystal_Monoclinic,crystal_Orthorhombic,crystal_Tetragonal,crystal_Triclinic,crystal_Trigonal,formation_energy_pbe,formation_energy_r2scan,material_id,formula
1.100399999999999,5.727425816244202,267.8769872409628,7,False,False,False,False,True,False,False,-0.2999897138357202,-0.5172021056380244,mp-570256,Ag2HgI4
0.41029999999999905,9.157642983263019,325.1760355986749,20,False,False,False,False,True,False,False,-0.14387690191816424,-0.45620014066247094,mp-29816,Ag2HgO2
0.41909999999999903,7.439905485131735,214.4695584083404,10,False,False,True,False,False,False,False,-0.007664176695930072,-0.23548389162408412,mp-9635,Ag2HgS2
1.2212,5.874190989845033,397.00142510366817,12,False,False,False,True,False,False,False,-0.12457718793453486,-0.41536927749824637,mp-556866,Ag2HgSI2
0.0,5.231020196736122,139.24135168819245,9,False,False,False,False,False,False,True,0.00475423914111997,-0.414058318842485,mp-1079032,Ag2IO6
0.0,3.679616397879486,197.94843922358982,9,False,False,False,False,False,True,False,0.5278177281625438,-0.04618081992093333,mp-1183027,Ag2IO6
0.0,5.551325674279469,225.92216947854794,10,False,False,True,False,False,False,False,-0.17157865049069337,-0.3171676580339591,mp-1079461,Ag2IOF
1.873099999999999,6.23221806833446,200.1924022766432,14,True,False,False,False,False,False,False,-0.631097683563467,-1.2656687773977549,mp-19318,Ag2MoO4
0.0,7.163037725930793,107.44222318884995,6,True,False,False,False,False,False,False,-0.3084470277061493,-0.3261914973122693,mp-353,Ag2O
0.0,6.869259737164115,168.05581551149785,9,False,False,False,False,False,True,False,0.07028738741133148,-0.23004473031925474,mp-38238,Ag2O
0.0,7.781835604135266,197.79721320523308,12,False,False,False,True,False,False,False,0.09181624402824445,-0.33531483687193886,mp-754338,Ag2O
0.0,8.614878187275739,44.667648301535706,3,False,False,False,False,False,False,True,0.14580513071581186,-0.21002727426866866,mp-7711,Ag2O
0.0,6.178949935751977,283.5055218558439,20,False,False,False,True,False,False,False,0.0882087723602449,-0.11294350106324687,mp-1046809,Ag2O3
0.0,6.577314962218024,133.16729061320189,10,True,False,False,False,False,False,False,0.0837923797797427,-0.16713839869159908,mp-11872,Ag2O3
0.34700000000000003,7.019151848151168,124.7847648799555,10,False,False,False,True,False,False,False,-0.12917476586548995,-0.37194731725991464,mp-546190,Ag2O3
0.0,4.906761132301088,377.2811491196398,20,False,False,False,True,False,False,False,-0.3692164831368678,-0.5932017042595391,mp-1215041,Ag2PO2
0.9013999999999991,6.053269971215515,255.27057984852271,7,False,False,False,False,True,False,False,-0.13075315878017835,-0.5859944225987513,mp-1229102,Ag2PbI4
1.3818000000000001,8.574442803523121,176.20682525541724,10,False,False,True,False,False,False,False,-0.4637631067719049,-0.8182586047779054,mp-20210,Ag2PbO2
0.0,0.9251373251805951,931.7794741722319,4,False,False,False,True,False,False,False,1.8545759765442478,1.6330595568076216,mp-1096329,Ag2PdAu
0.9506000000000001,4.65446805782275,331.0529342114716,14,False,False,False,True,False,False,False,-0.1396815501135825,-0.5574276970313341,mp-28557,Ag2PdCl4
0.0,8.197237478842462,71.74228473402489,5,False,False,False,True,False,False,False,-0.12522085053517362,-0.5248917734246884,mp-5495,Ag2PdO2
0.0,7.508354932920647,219.2138806086577,12,False,False,False,True,False,False,False,0.328760374388345,-0.10395783361107289,mp-1095694,Ag2S
1.183999999999999,6.204328485489086,265.288278285437,12,False,False,True,False,False,False,False,0.3215651020177098,-0.06384600409507973,mp-1102900,Ag2S
0.0,6.7483062986590365,60.97587857562714,3,True,False,False,False,False,False,False,0.13420405409085617,-0.03593165878115787,mp-1229090,Ag2S
1.2299,6.374803924267926,129.09696057998443,6,False,False,True,False,False,False,False,0.10970656469962155,-0.025475269351418126,mp-1393712,Ag2S
0.9741999999999991,6.512238384867619,126.37249472142531,6,False,False,False,True,False,False,False,0.18812598194904523,-0.21347405808240677,mp-1537871,Ag2S
1.5694,6.702851253011478,245.5575336082837,12,False,False,True,False,False,False,False,0.2733884955441867,-0.1482886821760933,mp-2018369,Ag2S
1.0891,6.046580348456434,136.10466800899007,6,False,False,True,False,False,False,False,0.19182933163454377,-0.1078993566835062,mp-2025704,Ag2S
0.6818999999999991,6.074255490692897,135.4845564493155,6,False,False,False,True,False,False,False,0.21299313989215027,-0.15789335760816056,mp-2212763,Ag2S
0.6684999999999991,6.087581006200281,135.18798519118562,6,False,False,False,False,True,False,False,0.3868228300974297,-0.10724489674973683,mp-2766207,Ag2S
1.3634,6.093478394225376,135.05714760492967,6,False,False,True,False,False,False,False,0.09774187407045949,-0.13851409931418876,mp-31053,Ag2S
1.3001,6.422762894340639,128.132989564584,6,False,False,False,True,False,False,False,0.27360935457133967,-0.08099354433736117,mp-32669,Ag2S
0.0,6.996038716042829,117.6333986015792,6,False,False,False,True,False,False,False,0.24532068786408387,-0.040836622508698045,mp-32791,Ag2S
0.6242999999999991,6.338404497074927,194.75748462317284,9,False,False,False,False,False,True,False,0.20630716746730693,-0.06454362952246741,mp-32868,Ag2S
1.442799999999999,6.3750554217582565,129.0918676734217,6,False,False,False,False,False,True,False,0.35705026186057953,-0.12683300117963112,mp-32884,Ag2S
1.0895,6.675568024896398,123.28056696405524,6,False,False,False,True,False,False,False,0.31769927807737147,-0.053947633715233076,mp-36216,Ag2S
0.12020000000000002,6.7653013691568145,121.64540291852752,6,False,False,True,False,False,False,False,0.3378805877959288,-0.09378314058770436,mp-38511,Ag2S
1.0853,6.697040973874489,122.88528831267233,6,False,False,True,False,False,False,False,0.37746822513565037,-0.06337688463312297,mp-556225,Ag2S
0.37009999999999904,6.45649477801871,127.46356021508139,6,False,False,True,False,False,False,False,0.27369659864074686,-0.005029424740619008,mp-560025,Ag2S
1.000699999999999,6.674811817819036,246.58906749081873,12,False,False,True,False,False,False,False,0.3129449664234116,-0.07488597745077141,mp-610517,Ag2S
0.0,4.812033958245735,386.2143675410586,20,False,False,False,True,False,False,False,0.1344488548443166,-0.10794913724713942,mp-1215021,Ag2SO2
1.2289,5.427367859487863,190.79392951841285,14,False,False,False,True,False,False,False,-0.9079878443886367,-1.2447988783154154,mp-5625,Ag2SO4
1.321,5.0882851778812554,203.5084128843598,14,False,False,False,False,False,True,False,-0.9455412225599137,-1.2838499417851292,mp-660503,Ag2SO4
1.7115,5.385771457098787,363.4427408473707,12,False,False,False,True,False,False,False,0.23347491339473872,-0.0894409831786917,mp-1183005,Ag2Se
0.0908,7.248676656330144,67.50954804406058,3,True,False,False,False,False,False,False,0.28127916329470304,-0.08263965138530437,mp-1229100,Ag2Se
0.027700000000000002,0.633696838636708,2316.6671592009716,9,False,False,False,False,False,True,False,2.4236116958830323,2.24487788286383,mp-1247874,Ag2Se
0.191699999999999,7.9882230810816575,245.0381668210089,12,False,False,False,True,False,False,False,0.492636478331988,-0.16337730842493825,mp-2022604,Ag2Se
0.0,7.944581231582495,246.38423132538338,12,False,False,False,True,False,False,False,0.015759382254212667,-0.1349101440381561,mp-2047939,Ag2Se
0.0,7.323513446110628,133.6393763969306,6,False,False,False,True,False,False,False,0.11026633589434015,0.04351779330016473,mp-2275442,Ag2Se
0.0,7.8746819154094645,124.28562581779786,6,False,False,False,True,False,False,False,0.38249012133751115,-0.05381975822145743,mp-32758,Ag2Se
0.0,7.323513446110628,267.2787527938612,12,False,False,False,True,False,False,False,0.4116313377402744,-0.008978186635146953,mp-568889,Ag2Se
0.0,8.112695161000696,241.2785764902418,12,False,False,False,True,False,False,False,0.26259379953699324,-0.1024806947090874,mp-568936,Ag2Se
0.9678,7.087893497811947,276.1637911954774,12,False,False,False,True,False,False,False,0.26767831503547396,-0.13756872196520956,mp-568971,Ag2Se
0.13839999999999902,7.259399584691568,269.63931618715077,12,False,False,False,True,False,False,False,0.1698517435521288,-0.17942738812563558,mp-754954,Ag2Se
0.15400000000000003,3.987585618991947,544.1790539989364,20,False,False,False,True,False,False,False,0.06581217214170926,-0.12733365177930264,mp-1215036,Ag2SeO2
0.42639999999999906,5.766886485369779,206.56740910925978,14,False,False,False,True,False,False,False,-0.5287367063676632,-0.7932207270414762,mp-11641,Ag2SeO4
0.48150000000000004,5.4150943992715295,219.9870790932647,14,False,False,False,False,False,True,False,-0.6261194996806849,-0.8327650354087472,mp-663172,Ag2SeO4
0.0,6.344301699808255,175.80534859388075,8,False,False,False,False,True,False,False,0.16289141829391462,-0.2906780610999986,mp-1229127,Ag2SnBiS4
0.0,7.116700364217253,200.4926464526378,8,False,False,False,False,False,False,True,0.010290413555911176,-0.2766461251070144,mp-1229140,Ag2SnBiSe4
0.015699999999999003,5.361600318849351,410.8585196337488,16,False,False,False,True,False,False,False,-0.29335351149804273,-0.41240483429197583,mp-1214926,Ag2SnHgS4
0.0,6.031333391455092,468.5244244828903,16,False,False,False,True,False,False,False,-0.22309456939899105,-0.42610792569018013,mp-10963,Ag2SnHgSe4
0.0,7.625642844780926,74.76399259585087,3,False,False,False,False,True,False,False,0.31021778480800866,0.01484147367010901,mp-1229101,Ag2Te
0.06519999999999901,0.25472694867010803,8952.700264535573,12,False,False,False,False,False,True,False,2.5099700779127385,2.2897574045213336,mp-1247858,Ag2Te
0.0,8.246593148191318,276.5377143946268,12,False,False,True,False,False,False,False,0.08147706899836926,-0.08632113700425316,mp-1592,Ag2Te
0.0,7.95531965479629,143.33138828483774,6,False,False,False,True,False,False,False,0.2833389067237838,-0.09871345148262674,mp-32811,Ag2Te
0.0,7.233017204853318,315.2894506061754,12,False,False,True,False,False,False,False,0.2776189264996464,-0.014818026383113775,mp-684798,Ag2Te
0.022099999999999002,5.890958320120927,229.63802607266098,14,False,False,False,True,False,False,False,-0.6533478391628106,-0.912339749395179,mp-1178564,Ag2TeO4
0.020399999999999002,5.9550754868196965,227.165557061871,14,False,False,False,False,False,True,False,-0.6472269594141764,-0.8700679466585493,mp-755598,Ag2TeO4
0.0,5.955075635479837,227.1655513910003,14,False,False,True,False,False,False,False,-0.5414230872534967,-0.9091496536861274,mp-893071,Ag2TeO4
0.0,5.313223654483256,274.60890979930554,18,False,False,True,False,False,False,False,-0.4558956201134866,-0.5563489736910489,mp-1182991,Ag2TeO6
0.28080000000000005,5.302684615502772,275.1546925894609,18,False,False,True,False,False,False,False,-0.5461224150453713,-0.6601207218203791,mp-1183014,Ag2TeO6
0.0,5.20610329613505,280.2592404112913,18,False,False,False,True,False,False,False,-0.35220452818786546,-0.5626741528202746,mp-1189776,Ag2TeO6
1.2999,5.146247485897094,283.64708953369046,12,False,False,True,False,False,False,False,0.18903314667030588,-0.09512346166738636,mp-29163,Ag2TeS3
0.0,4.694873581028049,212.72555705630128,13,False,False,False,False,False,False,True,-0.6750793874679903,-1.0381635861554432,mp-35320,Ag3(AsO4)2
0.0,4.522791078845507,188.54848238260112,13,False,False,False,False,False,False,True,-1.0845079308641592,-1.5808113460531827,mp-36383,Ag3(PO4)2
0.0,9.022950726712233,146.68556755042346,8,False,True,False,False,False,False,False,0.5170459209803029,0.0552510937081244,mp-1183193,Ag3As
0.0,8.97010786009527,73.7748457972964,4,False,False,False,False,True,False,False,0.3704012192554839,0.10100824156041402,mp-1183202,Ag3As
0.099399999999999,4.035877863536669,257.7727691321683,16,False,False,False,False,False,True,False,-1.5041134882166534,-1.7647222824620834,mp-1229185,Ag3AsF12
0.153999999999999,4.658310798461213,223.3297557360757,16,False,False,False,False,False,True,False,-1.47541075891442,-1.6404272451541508,mp-2749579,Ag3AsF12
9.999999999998901e-05,6.630288117256906,231.67585647847818,16,False,False,False,False,False,False,True,-0.6667842857113566,-0.9855448820349261,mp-1229124,Ag3AsO4
0.0,6.623866544273742,231.9004569306264,16,True,False,False,False,False,False,False,-0.7054754992755189,-0.9690924421929056,mp-5408,Ag3AsO4
1.177099999999999,5.416914003563466,303.3106595876594,14,False,False,False,False,False,False,True,0.1917009253453594,-0.1213151024545327,mp-4431,Ag3AsS3
1.6989,4.820572054822076,340.83252789613283,14,False,False,False,False,False,False,True,0.03673700083322855,-0.13335512870532226,mp-555843,Ag3AsS3
0.35760000000000003,4.841724156265268,361.33783611518703,16,False,False,False,True,False,False,False,0.23688396916742782,-0.15695443680697596,mp-9538,Ag3AsS4
0.845299999999999,6.365590311089679,331.5063542250601,14,False,False,False,False,False,False,True,0.23916660487449462,-0.2762279325402508,mp-5145,Ag3AsSe3
0.0,12.44105590633127,69.4819450678798,4,True,False,False,False,False,False,False,0.22197228898147536,-0.0947824532450887,mp-1183137,Ag3Au
0.0,12.398116253407213,139.445177864431,8,False,True,False,False,False,False,False,0.3101134370648442,-0.02970253593670857,mp-1183205,Ag3Au
0.0,12.434135258203163,69.52061764808629,4,False,False,False,False,True,False,False,0.34221793750666984,-0.04904544201894398,mp-1183214,Ag3Au
1.563399999999999,6.378086710836254,152.22733359231614,6,False,False,False,False,False,False,True,0.14481999411295754,-0.10423118923833354,mp-34460,Ag3AuS2
0.39320000000000005,7.316179092704849,132.7084973055563,6,False,False,False,False,False,True,False,0.25459541216739745,-0.10417603405758194,mp-34982,Ag3AuS2
0.0,6.402022767932245,99.18944020126604,7,False,False,False,False,False,False,True,-0.8471319226208237,-1.1756212104065966,mp-27816,Ag3BO3
0.0,9.99742337012961,88.46061290427231,4,False,True,False,False,False,False,False,0.46129462978232577,0.16268773509037832,mp-1229111,Ag3Bi
0.0,4.810628823628253,349.3265728581724,10,True,False,False,False,False,False,False,-0.30804316807831905,-0.4552222854253272,mp-1120715,Ag3BiBr6
0.0942,0.466819354062449,3579.7041670085223,10,False,False,False,True,False,False,False,1.1441703561987395,0.8213745976490342,mp-1215149,Ag3BiSe6
0.0,7.648671575046948,175.204749592078,8,False,True,False,False,False,False,False,0.33176011618681944,-0.029188026393453477,mp-1183272,Ag3Br
0.0,7.33751677069213,162.5152461228093,8,False,True,False,False,False,False,False,0.49693683471092626,-0.08334551701639206,mp-1183265,Ag3Cl
0.0,8.506404503323726,133.75937411059985,8,False,True,False,False,False,False,False,0.03409904349611498,-0.427330112336382,mp-1183244,Ag3F
0.0,8.963697780882413,73.40493335603253,4,False,True,False,False,False,False,False,0.7067531223767334,0.08284398576387295,mp-1229108,Ag3Ge
0.0,9.121116272495343,72.13806058074525,4,True,False,False,False,False,False,False,0.2846287718167946,0.072440403740547,mp-985282,Ag3Ge
0.0,9.016287402287896,72.97678178075013,4,True,False,False,False,False,False,False,0.5310464217581028,0.07210313500631313,mp-985283,Ag3Ge
0.0,11.854474513769265,146.85519983019344,8,False,True,False,False,False,False,False,0.34871356398575376,0.0011788764309344155,mp-1183250,Ag3Hg
0.0,11.815232843801287,73.67147336901013,4,True,False,False,False,False,False,False,0.6602950618576499,0.0405904037247902,mp-985443,Ag3Hg
0.0,8.957016366320707,62.589676076018876,4,False,False,False,False,True,False,False,1.1592954759467273,0.9749203481978088,mp-985299,Ag3N
0.0,9.226616749406004,122.23889308286942,8,False,False,False,False,False,False,True,-0.04252193007711341,-0.28371059074974614,mp-27819,Ag3O
0.0,7.049422627340591,182.6046271942463,14,False,False,True,False,False,False,False,-0.19135506824517334,-0.46506717600762204,mp-1605,Ag3O4
0.0,8.421605195423677,69.91437007662003,4,False,False,False,False,True,False,False,0.18683796720038998,0.18721637051114576,mp-985295,Ag3P
0.8305999999999991,3.854411510979593,286.19742275452717,14,False,False,True,False,False,False,False,0.17497011012373784,-0.03243603904254144,mp-27821,Ag3P11
0.42099999999999904,6.376836925513446,217.9957698023499,16,False,False,False,False,False,False,True,-1.2232220841884107,-1.4917773302371131,mp-1229128,Ag3PO4
0.17849999999999902,6.39046241047206,217.53096805692127,16,True,False,False,False,False,False,False,-1.0843050557339238,-1.4218560289899038,mp-4198,Ag3PO4
0.0,6.331813658222643,219.54585992531648,16,True,False,False,False,False,False,False,0.1651634514112179,-0.20188738065087863,mp-558154,Ag3PO4
0.9914000000000001,4.6642434210773995,343.7950769597486,16,False,False,False,True,False,False,False,0.32530081597910987,-0.21447467655701957,mp-12459,Ag3PS4
0.174399999999999,5.609767867358235,396.89909008346825,16,False,False,False,True,False,False,False,0.2887984051996335,-0.16531582487965993,mp-30908,Ag3PSe4
0.0,10.17271022464034,86.64571737195521,4,False,True,False,False,False,False,False,0.3556120516506405,0.15363726954222887,mp-1229123,Ag3Pb
0.0,10.708736006456256,133.3626391515351,8,False,True,False,False,False,False,False,0.10348766429775028,-0.05751242079737211,mp-1183206,Ag3Pd
0.0,10.728137772596519,66.5607268507526,4,False,False,False,False,True,False,False,0.3070115844759788,-0.130693285644213,mp-985296,Ag3Pd
0.0,12.906863305766075,66.73214578132846,4,True,False,False,False,False,False,False,0.08157380019690866,0.0026549977489571143,mp-12065,Ag3Pt
0.0,10.335685136954602,68.52343835603276,4,True,False,False,False,False,False,False,0.8036436773781541,0.23538675766368966,mp-1183156,Ag3Rh
0.0,10.358031864717374,136.75120768105444,8,False,True,False,False,False,False,False,0.699654250608192,0.23798629169023672,mp-1183225,Ag3Rh
0.0,10.45814057581765,67.7210903998678,4,True,False,False,False,False,False,False,0.4512723946842953,0.3394358736930908,mp-985297,Ag3Rh
0.0,10.235891254320787,137.7874669379773,8,False,True,False,False,False,False,False,0.5674639993863675,0.4619107905650415,mp-1183261,Ag3Ru
0.0,8.177007044993303,144.45463049065503,8,False,True,False,False,False,False,False,0.5642991400050239,0.11295918337304525,mp-1183254,Ag3S
0.2964,5.967646430204268,484.80551764514917,20,False,False,False,True,False,False,False,-0.022897088787890735,-0.3143395375820087,mp-1105645,Ag3SBr
0.39870000000000005,6.124830461748297,118.09093879361743,5,False,False,True,False,False,False,False,0.1453425692960212,-0.33171001036790776,mp-1229116,Ag3SBr
0.39769999999999905,6.1865134204165955,233.82701370779412,10,False,False,False,True,False,False,False,-0.27489628131915306,-0.33709749985903525,mp-36600,Ag3SBr
0.33980000000000005,6.4817422363222,247.258550725043,10,False,False,False,True,False,False,False,-0.030515013943063954,-0.2533358505019393,mp-1173025,Ag3SI
0.5478000000000001,6.576090262229425,121.85555000145258,5,False,False,False,False,False,False,True,0.04032068945772946,-0.27756085334716074,mp-22995,Ag3SI
0.6242999999999991,6.373934116559119,125.72032925181091,5,True,False,False,False,False,False,False,0.09615853156471328,-0.20100329543280776,mp-558189,Ag3SI
0.167599999999999,6.49674279385352,123.3438233881282,5,False,False,False,False,False,True,False,-0.021111650221884604,-0.2991170404001484,mp-632480,Ag3SI
0.256999999999999,6.567474042525697,244.0308376019067,10,False,False,False,False,False,True,False,0.15090842935212678,-0.22000168547434507,mp-673825,Ag3SI
0.262399999999999,6.475076465078784,123.75654559214739,5,False,False,True,False,False,False,False,-0.11020210190738719,-0.26254486964655566,mp-674981,Ag3SI
0.32160000000000005,6.4800331785069645,247.32376322424778,10,False,False,True,False,False,False,False,0.026868757746807952,-0.2856763996712087,mp-675879,Ag3SI
0.373899999999999,5.912215314641317,271.07710159969986,10,False,False,False,False,False,True,False,0.06469460225678679,-0.2668501282398724,mp-676121,Ag3SI
0.333,6.417371315030583,124.86936728848829,5,False,False,False,False,False,False,True,0.12749396760881432,-0.21195738099412081,mp-676561,Ag3SI
0.279999999999999,0.36569203699733105,3343.7773655826704,7,False,False,False,False,False,True,False,1.1266827334990486,0.7038804491752283,mp-1215087,Ag3SI3