band_gap,density,volume,nsites,crystal_Cubic,crystal_Hexagonal,crystal_Monoclinic,crystal_Orthorhombic,crystal_Tetragonal,crystal_Triclinic,crystal_Trigonal,formation_energy_pbe,formation_energy_r2scan,material_id,formula
0.0,5.294386118886549,177.66404421156656,13,False,False,False,True,False,False,False,-1.9893878211001397,-2.360058385239499,mp-1048346,Ba2AlV3O7
0.0,5.306797071834609,182.2548827756019,14,False,False,False,True,False,False,False,-2.1412789835009876,-2.527507638277914,mp-1048162,Ba2AlV3O8
0.0,8.241112654692401,194.47270897504848,13,False,False,False,True,False,False,False,-1.6020654283666536,-1.8357105198348127,mp-1045008,Ba2AlW3O7
0.0,7.8454750867631065,204.27972623743509,13,False,False,False,True,False,False,False,-1.5390860111688276,-1.736512559150068,mp-1048370,Ba2AlW3O7
0.0,8.048445588469558,202.42904219950753,14,False,False,False,False,True,False,False,-1.8390797792314684,-1.98244186818461,mp-1048143,Ba2AlW3O8
0.0,4.9299997199009855,235.49045578517533,6,False,False,False,False,True,False,False,-0.4664738795736332,-0.837148228506957,mp-2768,Ba2As
3.1948,4.657981329170051,320.907056023156,19,False,False,False,False,False,True,False,-1.6453552297363419,-2.067711322057935,mp-1228580,Ba2As6O11
1.8925,4.313988571648394,346.4958357049208,19,False,False,False,False,False,True,False,-1.0610028353403753,-1.4550389583979815,mp-675757,Ba2As6O11
0.5211,7.028815039925321,129.11914995823278,4,True,False,False,False,False,False,False,-0.3949729968728696,-0.9465698308522003,mp-861937,Ba2AsAu
0.7240000000000001,0.505420537474649,1411.0381380050517,4,False,False,False,True,False,False,False,-0.17584708344935704,-0.4768871272886547,mp-1096666,Ba2AsBr
0.125799999999999,4.550464526811383,260.3363851254263,10,False,False,True,False,False,False,False,-0.6405108198486222,-1.0335848607352973,mp-1087236,Ba2AsSe4O3
0.0,6.173956454971008,283.8271103612701,14,False,False,False,False,True,False,False,-0.7347372149923252,-0.8684469292006421,mp-1232309,Ba2Au(CO)2
0.0,6.839984792215028,260.0634128361087,14,False,False,False,False,True,False,False,-1.262765643228302,-1.4807608513687749,mp-1214785,Ba2AuO4
3.8041,4.3502946525560855,287.25227420614425,18,False,False,False,False,False,True,False,-2.7325478061799466,-3.109173211333392,mp-753413,Ba2B2O5
0.0,4.854675293466786,120.87657916370432,4,True,False,False,False,False,False,False,0.8124466859864707,0.35356266972016503,mp-631574,Ba2BeGa
0.0,5.797343297084497,277.05580780614787,6,False,False,False,False,True,False,False,-0.5165091454829553,-0.7463509283156049,mp-567872,Ba2Bi
2.012899999999999,7.522216207949441,341.11013077776954,18,False,False,True,False,False,False,False,-1.9991654855564929,-2.3240156905910787,mp-28670,Ba2Bi2O5
1.419299999999999,6.362487027654726,501.87848812774547,18,False,False,True,False,False,False,False,-1.7509191183389263,-1.8056023796926728,mp-1104988,Ba2Bi2Se3O2
0.0,7.537689278878859,198.61976216691716,5,False,False,False,True,False,False,False,-0.5196777781209965,-0.747531234458919,mp-569529,Ba2Bi3
0.0,7.093271669550113,237.28224879351203,12,False,False,False,True,False,False,False,-1.529315336722032,-2.020212317999875,mp-1048204,Ba2Bi3O7
1.8232,7.999941128062022,353.8073940513554,19,False,False,True,False,False,False,False,-1.3197989904787522,-1.703290365498855,mp-674537,Ba2Bi6O11
0.422799999999999,7.648884560139377,147.75546537595042,4,True,False,False,False,False,False,False,-0.4902850042928165,-0.8794397459008075,mp-862947,Ba2BiAu
0.0,8.081747715783711,158.5898830850815,10,False,False,False,False,False,True,False,-1.8195423579228558,-2.149771368738061,mp-1078727,Ba2BiIrO6
0.0,8.071393255747642,158.79333155481876,10,True,False,False,False,False,False,False,-1.8199476392057736,-2.08048154307903,mp-1095109,Ba2BiIrO6
0.0,4.619724443918717,252.1117522251766,10,False,False,False,False,False,True,False,-1.299532107921016,-1.5200943112191214,mp-1182508,Ba2BiSbO6
0.0,5.701061186215728,204.29298797386306,10,False,False,False,False,False,True,False,-0.1462016309696198,-0.5752172018735415,mp-1407554,Ba2BiSbO6
1.774599999999999,7.168423239519623,162.4746175606501,10,False,False,False,False,False,False,True,-2.0897201363415925,-2.450595229799848,mp-23091,Ba2BiSbO6
1.6958000000000002,7.168280676948144,162.47784885143284,10,False,False,True,False,False,False,False,-2.0792043458010783,-2.432439480611045,mp-23127,Ba2BiSbO6
1.643899999999999,7.141711074774705,163.082321891686,10,True,False,False,False,False,False,False,-2.2231478284001374,-2.4484920595803037,mp-545603,Ba2BiSbO6
0.31969999999999904,5.701061187244958,204.2929879369814,10,False,False,False,False,False,True,False,-1.0139448979806858,-0.9559523436299215,mp-643903,Ba2BiSbO6
0.0,5.701061186215728,204.29298797386306,10,False,False,False,False,False,True,False,0.16515789676305528,-0.2834857401410763,mp-988230,Ba2BiSbO6
0.0,7.754118578577006,163.4967374771576,10,True,False,False,False,False,False,False,-2.1891360194012606,-2.482656740591943,mp-1520718,Ba2BiWO6
0.0,1.171279373343254,642.8771237732002,5,False,False,False,False,True,False,False,-1.508410269606468,-1.6948779139052104,mp-1206930,Ba2Br2F
3.2683,4.621315137261959,323.72116182429835,10,False,False,False,True,False,False,False,-2.368236285212902,-2.7891133849805523,mp-1079891,Ba2Br2O
1.1377,5.124717030741697,119.42436611590482,4,False,False,False,False,False,False,True,-1.1703203059878693,-1.3971375813971174,mp-1018098,Ba2BrN
4.080500000000001,4.669285028024726,153.75688683623764,11,False,False,True,False,False,False,False,-2.76569740042331,-3.3034323697215267,mp-549737,Ba2Ca(BO3)2
0.0,5.894777202717408,246.21223571203876,16,False,False,False,False,True,False,False,-1.6492700558447453,-1.9653506570197183,mp-22601,Ba2Ca2Cu3HgO8
0.0,6.126043816134822,295.0199878098314,19,False,False,False,False,False,True,False,-1.8222832852283382,-2.2088879008615834,mp-1046494,Ba2Ca2Mn3Tl2O10
0.0,5.821187345800281,304.4190175127249,19,False,False,False,False,False,True,False,-2.6954381517678003,-2.7860784909701892,mp-1046109,Ba2Ca2Ti3Tl2O10
0.0,6.46174670803558,282.7730275533895,19,False,False,False,False,False,True,False,-1.496710626227128,-1.9430551925425137,mp-1046474,Ba2Ca2Tl2Co3O10
0.0,6.120920707837476,292.87256177822087,19,False,False,False,False,False,True,False,-1.9307656690868513,-2.1996436271875512,mp-1046503,Ba2Ca2Tl2Cr3O10
0.0,6.662240214169086,277.71242842711695,19,False,False,False,True,False,False,False,-1.6932958559746505,-1.9117818857500681,mp-1228620,Ba2Ca2Tl2Cu3O10
0.0,6.580189579840436,281.1753196762088,19,False,False,False,False,False,True,False,-1.6057806044600664,-1.8988244816672555,mp-653154,Ba2Ca2Tl2Cu3O10
0.0,6.233473631935148,290.6603254570216,19,False,False,False,False,False,True,False,-2.038176381601415,-2.0678203959327357,mp-1046475,Ba2Ca2Tl2Fe3O10
0.0,6.492308224897862,281.2579208755404,19,False,False,False,False,False,True,False,-1.4815593117866703,-1.8471030061097795,mp-1046512,Ba2Ca2Tl2Ni3O10
0.0,6.30182934362071,337.20253659400856,19,False,False,False,False,False,True,False,-2.0118723215781875,-2.171740458671024,mp-1367446,Ba2Ca2Tl2Sn3O10
0.0,7.355104332749478,333.0266244039511,19,False,False,False,False,False,True,False,-1.9021979090168823,-2.0240807258917886,mp-1046558,Ba2Ca2Tl2W3O10
0.0,5.687939462560735,294.7593311888536,20,False,False,False,False,True,False,False,-1.9848534685576846,-2.077110013615986,mp-1228579,Ba2Ca3Cu4HgO10
0.0,6.09490753936949,168.83778230740148,10,True,False,False,False,False,False,False,-1.9756146907515113,-2.4830346259302893,mp-1214698,Ba2CaBiO6
0.6019999999999991,5.360200302493706,143.3476485879613,10,True,False,False,False,False,False,False,-2.3998226230539186,-2.607709257520551,mp-1520172,Ba2CaCrO6
0.0,6.591620826567135,220.54154364700497,12,False,False,False,False,True,False,False,-1.2178911689291931,-1.7984903527334597,mp-1214691,Ba2CaCu(HgO3)2
0.0,6.158075338837193,199.11404926320108,12,False,False,False,False,True,False,False,-1.7945794788328444,-2.0084817636506886,mp-6879,Ba2CaCu2HgO6
0.0,5.75902545714989,191.96288830011142,14,False,False,False,False,True,False,False,-2.2321159307818,-2.2771021553841284,mp-1232340,Ba2CaCu2MoO8
0.28599999999999903,7.409982696245586,245.1350862635076,18,False,False,True,False,False,False,False,-2.8520116521034087,-2.980124927159509,mp-1228555,Ba2CaEr3(NiO5)2
3.4755000000000003,3.960282299459835,451.23140911442016,9,False,False,False,False,False,False,True,-1.450962746998958,-1.9519984371005987,mp-753345,Ba2CaI6
2.967,4.727786460298317,755.957900164298,18,False,False,True,False,False,False,False,-1.6320128616905,-1.816322323894585,mp-753351,Ba2CaI6
3.7972,3.737768828426785,956.1874179513138,18,False,False,False,False,True,False,False,-1.7409570461402561,-1.9179104746612567,mp-753731,Ba2CaI6
3.687999999999999,4.5098241638881795,792.4937636306772,18,False,False,True,False,False,False,False,-1.667594956122086,-2.0289339650025457,mp-756725,Ba2CaI6
0.0,6.598059773468753,151.74375893845558,10,True,False,False,False,False,False,False,-2.1620925155748685,-2.530373883377193,mp-20841,Ba2CaIrO6
2.258,5.478714226488384,153.56571582872633,10,True,False,False,False,False,False,False,-2.43453589861463,-2.920385905288119,mp-19403,Ba2CaMoO6
0.0,4.498409052500627,253.0415175476593,10,False,False,False,True,False,False,False,-0.009094414516061161,-0.5568036908012225,mp-1245724,Ba2CaN2
0.0,4.32693854635926,131.53459900102504,5,False,False,False,False,False,False,True,-0.342911586868363,-0.6291484521337182,mp-1245728,Ba2CaN2
0.0,5.223806067518879,160.09499906372125,10,True,False,False,False,False,False,False,-2.9867257309123056,-3.0748520772772223,mp-1214679,Ba2CaNbO6
0.0,6.613556256286688,150.88930401897395,10,True,False,False,False,False,False,False,-2.4434327321684908,-2.7018543650520863,mp-6739,Ba2CaOsO6
0.0,6.665614866962983,148.70864454671502,10,False,False,False,False,True,False,False,-2.576673562262568,-2.8866808575292446,mp-12417,Ba2CaReO6
0.0,6.517981414415694,152.0769221195082,10,True,False,False,False,False,False,False,-2.7600984681815905,-2.8857211628140855,mp-6635,Ba2CaReO6
2.01,5.6629405886883,143.5908969776417,10,True,False,False,False,False,False,False,-2.3933666614686313,-2.5085765926780312,mp-1520564,Ba2CaSeO6
2.9976000000000003,5.804636318956966,154.00023183896883,10,True,False,False,False,False,False,False,-2.435352115434183,-2.812491900648889,mp-550685,Ba2CaTeO6
0.0,6.796121902830578,239.1040028642234,15,False,False,False,False,True,False,False,-1.5739077291800116,-1.8523489081236837,mp-573069,Ba2CaTl2(CuO4)2
0.0,7.068271604813439,229.8977800758837,15,False,False,False,False,True,False,False,-1.5773052251327069,-1.8632511479451759,mp-6885,Ba2CaTl2(CuO4)2
0.0,6.541687864051921,192.46192941822596,13,False,False,False,False,True,False,False,-1.7918616031537276,-1.992312648201836,mp-632802,Ba2CaTlCu2O7
2.1948,6.39047624557279,337.1538572711704,20,False,False,True,False,False,False,False,-3.284996217130864,-3.573589268721785,mp-557448,Ba2CaUO6
3.183,6.377210092501664,154.81755213407968,10,True,False,False,False,False,False,False,-2.868331321640246,-2.9814107300267207,mp-18977,Ba2CaWO6
3.2912,6.377787410591273,154.80353803049138,10,False,False,True,False,False,False,False,-2.5992068093312812,-3.0259116947280376,mp-19098,Ba2CaWO6
3.1866,6.373690480453075,154.90304384778858,10,False,False,False,False,True,False,False,-2.5749216727914375,-3.0111300404786476,mp-19182,Ba2CaWO6
1.226199999999999,4.979756286756225,292.08167553192965,19,False,False,True,False,False,False,False,-2.427342981967293,-2.4750770829864166,mp-1233104,Ba2CaY2(Fe2O5)2
0.009000000000000001,4.688018558150186,310.2580636008272,19,False,False,False,True,False,False,False,-2.199358702186756,-2.39651060715356,mp-1233917,Ba2CaY2(Fe2O5)2
0.0,4.520926151567472,142.1692220278101,3,False,False,False,False,True,False,False,-0.14989278826350988,-0.2424968932347613,mp-8093,Ba2Cd
2.821899999999999,5.291953372791124,158.3624123132637,11,False,False,True,False,False,False,False,-2.613090948191337,-2.819307999652002,mp-1102943,Ba2Cd(BO3)2
0.0,5.829651911905296,412.5907207494258,14,False,False,True,False,False,False,False,-0.46347854225426516,-0.7828894469902314,mp-1104453,Ba2Cd2As3
0.0,5.900352540100257,486.73739791566766,14,False,False,True,False,False,False,False,-0.6787518465262016,-0.7616004078309335,mp-1104804,Ba2Cd2Sb3
0.0,8.216911718308397,585.169422205838,18,False,False,False,True,False,False,False,-0.291026852524356,-0.5034030361976141,mp-568744,Ba2Cd3Bi4
0.3205,0.42125550889350805,1950.9677537893356,4,False,False,False,True,False,False,False,1.2223024662711093,1.0392946494092379,mp-1093931,Ba2CdAg
0.39029999999999904,5.364082097613705,332.4173735799118,10,False,False,False,True,False,False,False,-0.5996126885901555,-0.9105754505516908,mp-1079666,Ba2CdAs2
0.0,0.39597993026619305,1915.537281508631,4,False,False,False,True,False,False,False,1.4300265836804367,1.1377386487333359,mp-1096555,Ba2CdGa
0.0671,0.409834730453342,1862.5998601118017,4,False,False,False,True,False,False,False,1.243466000749412,1.039970330788394,mp-1093582,Ba2CdGe
0.055999999999999,0.48725577939326703,2002.6937112945527,4,False,False,False,True,False,False,False,1.2656676801959077,0.9086116201026895,mp-1097478,Ba2CdHg
0.0,6.502355070707267,150.07240831538925,4,True,False,False,False,False,False,False,-0.19370975331309087,-0.44252984717078137,mp-1183204,Ba2CdHg
0.0,0.442501779138648,1883.373960630521,4,False,False,False,True,False,False,False,1.352313374284426,1.0818635934550946,mp-1093672,Ba2CdIn
0.0,5.398474406972864,154.37626735545192,4,True,False,False,False,False,False,False,0.19006427187811348,-0.3416179869173083,mp-1183281,Ba2CdIn
2.5376000000000003,6.318198368159635,152.17224725980637,10,True,False,False,False,False,False,False,-1.968250587231448,-2.44147237425967,mp-1207118,Ba2CdMoO6
0.479099999999999,5.516552018116673,124.94288037859012,5,False,False,False,False,True,False,False,-0.28364991553913965,-0.4036086820644591,mp-1247299,Ba2CdN2
0.0,7.423540219656888,150.60559245646297,10,True,False,False,False,False,False,False,-1.7986872993181238,-2.2577519347795434,mp-1206134,Ba2CdOsO6
0.0,4.310019672484364,252.73200084284593,17,False,False,True,False,False,False,False,-2.3930873561750006,-2.806761530212749,mp-1188260,Ba2CdP3O11
0.0,6.2919021500166075,156.83655353897143,4,True,False,False,False,False,False,False,-0.3506838633128908,-0.5031504191187736,mp-867333,Ba2CdPb
0.0,7.349226321673464,151.21949925033945,10,True,False,False,False,False,False,False,-2.039483185686771,-2.4778474114158358,mp-551702,Ba2CdReO6
0.0,0.45085987169629604,1862.7941831455594,4,False,False,False,True,False,False,False,1.535095069011883,1.044163563963111,mp-1093694,Ba2CdSn
0.0,5.470536871889092,153.52408110533287,4,True,False,False,False,False,False,False,-0.3832083771866601,-0.49001319339302496,mp-1183198,Ba2CdSn
0.0,5.9847353442258235,352.31232914496854,18,False,False,False,True,False,False,False,-3.1894032942632498,-3.3470386417435667,mp-769656,Ba2Ce2O5
0.0,6.879544527737553,347.4554673326278,20,False,False,True,False,False,False,False,-2.442065685973475,-2.9328724760333817,mp-1228427,Ba2CeBiO6
0.0,6.77259237450257,176.47122599019832,10,True,False,False,False,False,False,False,-2.523333123376153,-2.85771552297588,mp-1519364,Ba2CeBiO6
0.0,6.233517220473483,149.9136175317249,10,True,False,False,False,False,False,False,-2.6458930707140715,-2.996734793276374,mp-1519270,Ba2CeCrO6
2.2198,7.007365395148178,163.33345195564382,10,True,False,False,False,False,False,False,-3.314363220539925,-3.6767206129729653,mp-1518368,Ba2CeHfO6
0.0,5.618798128479792,185.58802306159242,11,False,False,True,False,False,False,False,-2.3933198741335047,-2.7113908395731245,mp-2217772,Ba2CeMgNbO6
0.0,5.906422429797417,176.5504667234758,11,False,False,True,False,False,False,False,-2.838126636064844,-2.900373458132635,mp-2217812,Ba2CeMgNbO6
0.0,6.180047217996893,162.20300578187766,10,False,False,True,False,False,False,False,-2.918471300006783,-3.325656971035696,mp-1079632,Ba2CeNbO6
0.0,6.158877795373797,162.7605333208576,10,True,False,False,False,False,False,False,-2.890812204135833,-3.3570934092040585,mp-1228422,Ba2CeNbO6
0.016199999999999,6.663255379752162,184.86334313045163,10,True,False,False,False,False,False,False,-3.3747811236102043,-3.6227507610058196,mp-1205643,Ba2CePaO6
2.3054,6.981437634787639,170.76873246930134,10,False,False,False,False,False,False,True,-2.580355625472079,-2.8314084643500665,mp-1228392,Ba2CePbO6
0.0,5.833191811907629,185.5125381794281,10,True,False,False,False,False,False,False,-3.1565655875500247,-3.213477644054597,mp-1516858,Ba2CePrO6
1.420399999999999,7.597965773437191,154.26394370884378,10,True,False,False,False,False,False,False,-2.423403863597324,-2.8155791002337054,mp-21879,Ba2CePtO6
0.219199999999999,7.144839164841098,175.41599809894615,10,True,False,False,False,False,False,False,-3.0554542056178766,-3.454719106970834,mp-1205973,Ba2CePuO6
2.144399999999999,6.440040825251537,162.30800115493082,10,True,False,False,False,False,False,False,-2.825017769049897,-3.108532467886788,mp-1521094,Ba2CeSnO6
0.0,7.063294363905758,162.61796913557265,10,False,False,True,False,False,False,False,-3.015441682752758,-3.5228115293917197,mp-1078874,Ba2CeTaO6
0.0,6.190741400725244,150.66659251161354,10,True,False,False,False,False,False,False,-2.9211536196469914,-3.175339802460926,mp-1517324,Ba2CeVO6
0.0,7.180433725230898,160.63389862613013,10,True,False,False,False,False,False,False,-2.6494144141159595,-3.0012088894530917,mp-1517711,Ba2CeWO6
2.3379,6.003791269421657,166.49955537419177,10,False,False,False,False,True,False,False,-3.4356740808038166,-3.6484620455349575,mp-1228386,Ba2CeZrO6
2.5683,6.003700406710402,166.50207525359932,10,False,False,False,False,True,False,False,-3.2838904996311347,-3.5343232139461636,mp-1228396,Ba2CeZrO6
2.2933,5.994797811836266,166.7493397265994,10,True,False,False,False,False,False,False,-3.3162478996854254,-3.5564235344389052,mp-1519247,Ba2CeZrO6
0.0,1.060469401560042,570.8448255841915,5,False,False,False,False,True,False,False,-1.4932672286938589,-1.8408563554749144,mp-1207049,Ba2Cl2F
5.7361,4.639034242288865,131.40397950052972,6,False,False,False,False,False,False,True,-3.576773755158338,-3.8050429909971797,mp-1018650,Ba2ClF3
0.0,5.591873690185713,280.6335154243477,18,False,False,False,True,False,False,False,-1.774272496572972,-2.054457175415032,mp-1076439,Ba2Co2O5
0.0,5.59820938620812,280.3159123257911,18,False,False,True,False,False,False,False,-1.5944667898393292,-1.9814741545023946,mp-2222256,Ba2Co2O5
0.0,5.143570150879988,181.90278121980538,12,False,False,False,True,False,False,False,-1.3981484543357325,-1.6031533244669018,mp-1048496,Ba2Co3O7
0.0,5.143523623781422,181.90442666935522,12,False,False,False,True,False,False,False,-1.581224511360801,-1.6822400679454894,mp-1402976,Ba2Co3O7
0.0,5.339829561692667,180.19251990533527,13,False,False,False,False,True,False,False,-0.9410422512922639,-1.4858619645191518,mp-1048116,Ba2Co3O8
0.0,6.636055001215707,184.98051573707062,9,False,False,False,False,True,False,False,-0.9252635379765191,-1.4386504853893896,mp-1078198,Ba2CoAg2(SeO)2
0.0,5.8283570102180455,158.63843389684996,9,False,False,False,False,True,False,False,-1.3801511603769536,-1.483826778995568,mp-1078706,Ba2CoCu2(SO)2
0.0,5.158377211220372,144.08021811551296,9,False,False,False,False,True,False,False,-3.096178974768777,-3.5214803025846506,mp-555162,Ba2CoF6
0.0,6.306065383062162,276.7660678753778,20,True,False,False,False,False,False,False,-2.2387317335827017,-2.410841405926375,mp-18967,Ba2CoMoO6
1.274,6.296939520696896,277.16717209981965,20,False,False,False,False,True,False,False,-2.114546684700342,-2.4228679124029235,mp-561894,Ba2CoMoO6
0.0,5.496412114558659,109.24434012377884,5,False,False,False,False,True,False,False,-0.17067902664797593,-0.537005780919189,mp-1247530,Ba2CoN2
0.0,4.984808800675189,173.4024369463537,8,False,False,False,False,True,False,False,-1.1438793787974473,-1.448756526957306,mp-1228387,Ba2CoNiS4